 Entering Gaussian System, Link 0=g09
 Input=acetylene.gjf
 Output=acetylene.out
 Initial command:
 /share/sw/non-free/gaussian/g09/l1.exe "/scratch/users/ekwan16/numfreq/Gau-137630.inp" -scrdir="/scratch/users/ekwan16/numfreq/"
 Entering Link 1 = /share/sw/non-free/gaussian/g09/l1.exe PID=    137631.
  
 Copyright (c) 1988,1990,1992,1993,1995,1998,2003,2009,2013,
            Gaussian, Inc.  All Rights Reserved.
  
 This is part of the Gaussian(R) 09 program.  It is based on
 the Gaussian(R) 03 system (copyright 2003, Gaussian, Inc.),
 the Gaussian(R) 98 system (copyright 1998, Gaussian, Inc.),
 the Gaussian(R) 94 system (copyright 1995, Gaussian, Inc.),
 the Gaussian 92(TM) system (copyright 1992, Gaussian, Inc.),
 the Gaussian 90(TM) system (copyright 1990, Gaussian, Inc.),
 the Gaussian 88(TM) system (copyright 1988, Gaussian, Inc.),
 the Gaussian 86(TM) system (copyright 1986, Carnegie Mellon
 University), and the Gaussian 82(TM) system (copyright 1983,
 Carnegie Mellon University). Gaussian is a federally registered
 trademark of Gaussian, Inc.
  
 This software contains proprietary and confidential information,
 including trade secrets, belonging to Gaussian, Inc.
  
 This software is provided under written license and may be
 used, copied, transmitted, or stored only in accord with that
 written license.
  
 The following legend is applicable only to US Government
 contracts under FAR:
  
                    RESTRICTED RIGHTS LEGEND
  
 Use, reproduction and disclosure by the US Government is
 subject to restrictions as set forth in subparagraphs (a)
 and (c) of the Commercial Computer Software - Restricted
 Rights clause in FAR 52.227-19.
  
 Gaussian, Inc.
 340 Quinnipiac St., Bldg. 40, Wallingford CT 06492
  
  
 ---------------------------------------------------------------
 Warning -- This program may not be used in any manner that
 competes with the business of Gaussian, Inc. or will provide
 assistance to any competitor of Gaussian, Inc.  The licensee
 of this program is prohibited from giving any competitor of
 Gaussian, Inc. access to this program.  By using this program,
 the user acknowledges that Gaussian, Inc. is engaged in the
 business of creating and licensing software in the field of
 computational chemistry and represents and warrants to the
 licensee that it is not a competitor of Gaussian, Inc. and that
 it will not use this program in any manner prohibited above.
 ---------------------------------------------------------------
  

 Cite this work as:
 Gaussian 09, Revision D.01,
 M. J. Frisch, G. W. Trucks, H. B. Schlegel, G. E. Scuseria, 
 M. A. Robb, J. R. Cheeseman, G. Scalmani, V. Barone, B. Mennucci, 
 G. A. Petersson, H. Nakatsuji, M. Caricato, X. Li, H. P. Hratchian, 
 A. F. Izmaylov, J. Bloino, G. Zheng, J. L. Sonnenberg, M. Hada, 
 M. Ehara, K. Toyota, R. Fukuda, J. Hasegawa, M. Ishida, T. Nakajima, 
 Y. Honda, O. Kitao, H. Nakai, T. Vreven, J. A. Montgomery, Jr., 
 J. E. Peralta, F. Ogliaro, M. Bearpark, J. J. Heyd, E. Brothers, 
 K. N. Kudin, V. N. Staroverov, T. Keith, R. Kobayashi, J. Normand, 
 K. Raghavachari, A. Rendell, J. C. Burant, S. S. Iyengar, J. Tomasi, 
 M. Cossi, N. Rega, J. M. Millam, M. Klene, J. E. Knox, J. B. Cross, 
 V. Bakken, C. Adamo, J. Jaramillo, R. Gomperts, R. E. Stratmann, 
 O. Yazyev, A. J. Austin, R. Cammi, C. Pomelli, J. W. Ochterski, 
 R. L. Martin, K. Morokuma, V. G. Zakrzewski, G. A. Voth, 
 P. Salvador, J. J. Dannenberg, S. Dapprich, A. D. Daniels, 
 O. Farkas, J. B. Foresman, J. V. Ortiz, J. Cioslowski, 
 and D. J. Fox, Gaussian, Inc., Wallingford CT, 2013.
 
 ******************************************
 Gaussian 09:  ES64L-G09RevD.01 24-Apr-2013
                15-Jul-2016 
 ******************************************
 ---------------------------------------------------------
 #p hf/3-21g geom=connectivity nosymmetry opt freq=noraman
 ---------------------------------------------------------
 1/18=20,19=15,38=1,57=2/1,3;
 2/9=110,12=2,15=1,17=6,18=5,40=1/2;
 3/5=5,11=9,16=1,25=1,30=1,71=1/1,2,3;
 4//1;
 5/5=2,38=5/2;
 6/7=2,8=2,9=2,10=2,28=1/1;
 7/30=1/1,2,3,16;
 1/18=20,19=15/3(2);
 2/9=110,15=1/2;
 99//99;
 2/9=110,15=1/2;
 3/5=5,11=9,16=1,25=1,30=1,71=1/1,2,3;
 4/5=5,16=3,69=1/1;
 5/5=2,38=5/2;
 7/30=1/1,2,3,16;
 1/18=20,19=15/3(-5);
 2/9=110,15=1/2;
 6/7=2,8=2,9=2,10=2,19=2,28=1/1;
 99/9=1/99;
 Leave Link    1 at Fri Jul 15 09:20:47 2016, MaxMem=           0 cpu:         0.0
 (Enter /share/sw/non-free/gaussian/g09/l101.exe)
 -------------------
 Title Card Required
 -------------------
 Symbolic Z-matrix:
 Charge =  0 Multiplicity = 1
 C                    -2.47012   0.01992   0. 
 H                    -3.54012   0.01992   0. 
 C                    -1.26892   0.01992   0. 
 H                    -0.19892   0.01992   0. 
 
 NAtoms=      4 NQM=        4 NQMF=       0 NMMI=      0 NMMIF=      0
                NMic=       0 NMicF=      0.
                    Isotopes and Nuclear Properties:
 (Nuclear quadrupole moments (NQMom) in fm**2, nuclear magnetic moments (NMagM)
  in nuclear magnetons)

  Atom         1           2           3           4
 IAtWgt=          12           1          12           1
 AtmWgt=  12.0000000   1.0078250  12.0000000   1.0078250
 NucSpn=           0           1           0           1
 AtZEff=   0.0000000   0.0000000   0.0000000   0.0000000
 NQMom=    0.0000000   0.0000000   0.0000000   0.0000000
 NMagM=    0.0000000   2.7928460   0.0000000   2.7928460
 AtZNuc=   6.0000000   1.0000000   6.0000000   1.0000000
 Leave Link  101 at Fri Jul 15 09:20:47 2016, MaxMem=    33554432 cpu:         0.1
 (Enter /share/sw/non-free/gaussian/g09/l103.exe)

 GradGradGradGradGradGradGradGradGradGradGradGradGradGradGradGradGradGrad
 Berny optimization.
 Initialization pass.
                           ----------------------------
                           !    Initial Parameters    !
                           ! (Angstroms and Degrees)  !
 --------------------------                            --------------------------
 ! Name  Definition              Value          Derivative Info.                !
 --------------------------------------------------------------------------------
 ! R1    R(1,2)                  1.07           estimate D2E/DX2                !
 ! R2    R(1,3)                  1.2012         estimate D2E/DX2                !
 ! R3    R(3,4)                  1.07           estimate D2E/DX2                !
 ! A1    L(2,1,3,-2,-1)        180.0            estimate D2E/DX2                !
 ! A2    L(1,3,4,-2,-1)        180.0            estimate D2E/DX2                !
 ! A3    L(2,1,3,-3,-2)        180.0            estimate D2E/DX2                !
 ! A4    L(1,3,4,-3,-2)        180.0            estimate D2E/DX2                !
 --------------------------------------------------------------------------------
 Trust Radius=3.00D-01 FncErr=1.00D-07 GrdErr=1.00D-07
 Number of steps in this run=     20 maximum allowed number of steps=    100.
 GradGradGradGradGradGradGradGradGradGradGradGradGradGradGradGradGradGrad

 Leave Link  103 at Fri Jul 15 09:20:47 2016, MaxMem=    33554432 cpu:         0.0
 (Enter /share/sw/non-free/gaussian/g09/l202.exe)
                          Input orientation:                          
 ---------------------------------------------------------------------
 Center     Atomic      Atomic             Coordinates (Angstroms)
 Number     Number       Type             X           Y           Z
 ---------------------------------------------------------------------
      1          6           0       -2.470119    0.019920    0.000000
      2          1           0       -3.540119    0.019920    0.000000
      3          6           0       -1.268919    0.019920    0.000000
      4          1           0       -0.198919    0.019920    0.000000
 ---------------------------------------------------------------------
                    Distance matrix (angstroms):
                    1          2          3          4
     1  C    0.000000
     2  H    1.070000   0.000000
     3  C    1.201200   2.271200   0.000000
     4  H    2.271200   3.341200   1.070000   0.000000
 Symmetry turned off by external request.
 Stoichiometry    C2H2
 Framework group  D*H[C*(HC.CH)]
 Deg. of freedom     2
 Full point group                 D*H     NOp   8
 Rotational constants (GHZ):      0.0000000     35.3838100     35.3838100
 Leave Link  202 at Fri Jul 15 09:20:47 2016, MaxMem=    33554432 cpu:         0.0
 (Enter /share/sw/non-free/gaussian/g09/l301.exe)
 Standard basis: 3-21G (6D, 7F)
 Ernie: Thresh=  0.10000D-02 Tol=  0.10000D-05 Strict=F.
    22 basis functions,    36 primitive gaussians,    22 cartesian basis functions
     7 alpha electrons        7 beta electrons
       nuclear repulsion energy        24.7484683839 Hartrees.
 IExCor=    0 DFT=F Ex=HF Corr=None ExCW=0 ScaHFX=  1.000000
 ScaDFX=  1.000000  1.000000  1.000000  1.000000 ScalE2=  1.000000  1.000000
 IRadAn=      0 IRanWt=     -1 IRanGd=            0 ICorTp=0 IEmpDi=  4
 NAtoms=    4 NActive=    4 NUniq=    4 SFac= 1.00D+00 NAtFMM=   60 NAOKFM=F Big=F
 Integral buffers will be    131072 words long.
 Raffenetti 1 integral format.
 Two-electron integral symmetry is turned off.
 Leave Link  301 at Fri Jul 15 09:20:47 2016, MaxMem=    33554432 cpu:         0.0
 (Enter /share/sw/non-free/gaussian/g09/l302.exe)
 NPDir=0 NMtPBC=     1 NCelOv=     1 NCel=       1 NClECP=     1 NCelD=      1
         NCelK=      1 NCelE2=     1 NClLst=     1 CellRange=     0.0.
 One-electron integrals computed using PRISM.
 NBasis=    22 RedAO= T EigKep=  2.33D-03  NBF=    22
 NBsUse=    22 1.00D-06 EigRej= -1.00D+00 NBFU=    22
 Leave Link  302 at Fri Jul 15 09:20:47 2016, MaxMem=    33554432 cpu:         0.1
 (Enter /share/sw/non-free/gaussian/g09/l303.exe)
 DipDrv:  MaxL=1.
 Leave Link  303 at Fri Jul 15 09:20:47 2016, MaxMem=    33554432 cpu:         0.0
 (Enter /share/sw/non-free/gaussian/g09/l401.exe)
 ExpMin= 1.83D-01 ExpMax= 1.72D+02 ExpMxC= 1.72D+02 IAcc=1 IRadAn=         1 AccDes= 0.00D+00
 Harris functional with IExCor=  205 and IRadAn=       1 diagonalized for initial guess.
 HarFok:  IExCor=  205 AccDes= 0.00D+00 IRadAn=         1 IDoV= 1 UseB2=F ITyADJ=14
 ICtDFT=  3500011 ScaDFX=  1.000000  1.000000  1.000000  1.000000
 FoFCou: FMM=F IPFlag=           0 FMFlag=      100000 FMFlg1=           0
         NFxFlg=           0 DoJE=T BraDBF=F KetDBF=T FulRan=T
         wScrn=  0.000000 ICntrl=     500 IOpCl=  0 I1Cent=   200000004 NGrid=           0
         NMat0=    1 NMatS0=      1 NMatT0=    0 NMatD0=    1 NMtDS0=    0 NMtDT0=    0
 Symmetry not used in FoFCou.
 Harris En= -76.5000654879308    
 JPrj=0 DoOrth=F DoCkMO=F.
 Leave Link  401 at Fri Jul 15 09:20:47 2016, MaxMem=    33554432 cpu:         0.1
 (Enter /share/sw/non-free/gaussian/g09/l502.exe)
 Closed shell SCF:
 Using DIIS extrapolation, IDIIS=  1040.
 Two-electron integral symmetry not used.
 Keep R1 ints in memory in canonical form, NReq=856514.
 IVT=       20274 IEndB=       20274 NGot=    33554432 MDV=    33502028
 LenX=    33502028 LenY=    33501103
 Requested convergence on RMS density matrix=1.00D-08 within 128 cycles.
 Requested convergence on MAX density matrix=1.00D-06.
 Requested convergence on             energy=1.00D-06.
 No special actions if energy rises.
 FoFCou: FMM=F IPFlag=           0 FMFlag=           0 FMFlg1=           0
         NFxFlg=           0 DoJE=F BraDBF=F KetDBF=F FulRan=T
         wScrn=  0.000000 ICntrl=     600 IOpCl=  0 I1Cent=           0 NGrid=           0
         NMat0=    1 NMatS0=    253 NMatT0=    0 NMatD0=    1 NMtDS0=    0 NMtDT0=    0
 Symmetry not used in FoFCou.

 Cycle   1  Pass 1  IDiag  1:
 E= -76.3116381607161    
 DIIS: error= 5.64D-02 at cycle   1 NSaved=   1.
 NSaved= 1 IEnMin= 1 EnMin= -76.3116381607161     IErMin= 1 ErrMin= 5.64D-02
 ErrMax= 5.64D-02  0.00D+00 EMaxC= 1.00D-01 BMatC= 9.12D-02 BMatP= 9.12D-02
 IDIUse=3 WtCom= 4.36D-01 WtEn= 5.64D-01
 Coeff-Com:  0.100D+01
 Coeff-En:   0.100D+01
 Coeff:      0.100D+01
 Gap=     0.639 Goal=   None    Shift=    0.000
 GapD=    0.639 DampG=2.000 DampE=0.500 DampFc=1.0000 IDamp=-1.
 RMSDP=1.66D-02 MaxDP=9.68D-02              OVMax= 9.87D-02

 Cycle   2  Pass 1  IDiag  1:
 E= -76.3902632686874     Delta-E=       -0.078625107971 Rises=F Damp=F
 DIIS: error= 1.45D-02 at cycle   2 NSaved=   2.
 NSaved= 2 IEnMin= 2 EnMin= -76.3902632686874     IErMin= 2 ErrMin= 1.45D-02
 ErrMax= 1.45D-02  0.00D+00 EMaxC= 1.00D-01 BMatC= 5.48D-03 BMatP= 9.12D-02
 IDIUse=3 WtCom= 8.55D-01 WtEn= 1.45D-01
 Coeff-Com:  0.144D+00 0.856D+00
 Coeff-En:   0.000D+00 0.100D+01
 Coeff:      0.123D+00 0.877D+00
 Gap=     0.635 Goal=   None    Shift=    0.000
 RMSDP=2.52D-03 MaxDP=1.06D-02 DE=-7.86D-02 OVMax= 1.97D-02

 Cycle   3  Pass 1  IDiag  1:
 E= -76.3949146262359     Delta-E=       -0.004651357548 Rises=F Damp=F
 DIIS: error= 1.42D-03 at cycle   3 NSaved=   3.
 NSaved= 3 IEnMin= 3 EnMin= -76.3949146262359     IErMin= 3 ErrMin= 1.42D-03
 ErrMax= 1.42D-03  0.00D+00 EMaxC= 1.00D-01 BMatC= 4.76D-05 BMatP= 5.48D-03
 IDIUse=3 WtCom= 9.86D-01 WtEn= 1.42D-02
 Coeff-Com: -0.164D-01 0.298D-01 0.987D+00
 Coeff-En:   0.000D+00 0.000D+00 0.100D+01
 Coeff:     -0.161D-01 0.293D-01 0.987D+00
 Gap=     0.631 Goal=   None    Shift=    0.000
 RMSDP=4.64D-04 MaxDP=2.49D-03 DE=-4.65D-03 OVMax= 2.49D-03

 Cycle   4  Pass 1  IDiag  1:
 E= -76.3949713376884     Delta-E=       -0.000056711452 Rises=F Damp=F
 DIIS: error= 1.30D-04 at cycle   4 NSaved=   4.
 NSaved= 4 IEnMin= 4 EnMin= -76.3949713376884     IErMin= 4 ErrMin= 1.30D-04
 ErrMax= 1.30D-04  0.00D+00 EMaxC= 1.00D-01 BMatC= 2.80D-07 BMatP= 4.76D-05
 IDIUse=3 WtCom= 9.99D-01 WtEn= 1.30D-03
 Coeff-Com:  0.345D-02-0.105D-01-0.226D+00 0.123D+01
 Coeff-En:   0.000D+00 0.000D+00 0.000D+00 0.100D+01
 Coeff:      0.345D-02-0.105D-01-0.226D+00 0.123D+01
 Gap=     0.631 Goal=   None    Shift=    0.000
 RMSDP=5.66D-05 MaxDP=3.02D-04 DE=-5.67D-05 OVMax= 2.01D-04

 Cycle   5  Pass 1  IDiag  1:
 E= -76.3949717917476     Delta-E=       -0.000000454059 Rises=F Damp=F
 DIIS: error= 1.50D-05 at cycle   5 NSaved=   5.
 NSaved= 5 IEnMin= 5 EnMin= -76.3949717917476     IErMin= 5 ErrMin= 1.50D-05
 ErrMax= 1.50D-05  0.00D+00 EMaxC= 1.00D-01 BMatC= 3.72D-09 BMatP= 2.80D-07
 IDIUse=1 WtCom= 1.00D+00 WtEn= 0.00D+00
 Coeff-Com: -0.122D-02 0.382D-02 0.791D-01-0.469D+00 0.139D+01
 Coeff:     -0.122D-02 0.382D-02 0.791D-01-0.469D+00 0.139D+01
 Gap=     0.631 Goal=   None    Shift=    0.000
 RMSDP=5.65D-06 MaxDP=3.20D-05 DE=-4.54D-07 OVMax= 4.14D-05

 Cycle   6  Pass 1  IDiag  1:
 E= -76.3949718000565     Delta-E=       -0.000000008309 Rises=F Damp=F
 DIIS: error= 8.69D-07 at cycle   6 NSaved=   6.
 NSaved= 6 IEnMin= 6 EnMin= -76.3949718000565     IErMin= 6 ErrMin= 8.69D-07
 ErrMax= 8.69D-07  0.00D+00 EMaxC= 1.00D-01 BMatC= 9.60D-12 BMatP= 3.72D-09
 IDIUse=1 WtCom= 1.00D+00 WtEn= 0.00D+00
 Coeff-Com:  0.142D-03-0.420D-03-0.899D-02 0.539D-01-0.187D+00 0.114D+01
 Coeff:      0.142D-03-0.420D-03-0.899D-02 0.539D-01-0.187D+00 0.114D+01
 Gap=     0.631 Goal=   None    Shift=    0.000
 RMSDP=3.77D-07 MaxDP=1.89D-06 DE=-8.31D-09 OVMax= 2.34D-06

 Cycle   7  Pass 1  IDiag  1:
 E= -76.3949718000743     Delta-E=       -0.000000000018 Rises=F Damp=F
 DIIS: error= 7.69D-08 at cycle   7 NSaved=   7.
 NSaved= 7 IEnMin= 7 EnMin= -76.3949718000743     IErMin= 7 ErrMin= 7.69D-08
 ErrMax= 7.69D-08  0.00D+00 EMaxC= 1.00D-01 BMatC= 1.22D-13 BMatP= 9.60D-12
 IDIUse=1 WtCom= 1.00D+00 WtEn= 0.00D+00
 Coeff-Com: -0.109D-04 0.283D-04 0.654D-03-0.388D-02 0.158D-01-0.186D+00
 Coeff-Com:  0.117D+01
 Coeff:     -0.109D-04 0.283D-04 0.654D-03-0.388D-02 0.158D-01-0.186D+00
 Coeff:      0.117D+01
 Gap=     0.631 Goal=   None    Shift=    0.000
 RMSDP=6.38D-08 MaxDP=3.26D-07 DE=-1.78D-11 OVMax= 1.98D-07

 Cycle   8  Pass 1  IDiag  1:
 E= -76.3949718000745     Delta-E=        0.000000000000 Rises=F Damp=F
 DIIS: error= 8.24D-09 at cycle   8 NSaved=   8.
 NSaved= 8 IEnMin= 8 EnMin= -76.3949718000745     IErMin= 8 ErrMin= 8.24D-09
 ErrMax= 8.24D-09  0.00D+00 EMaxC= 1.00D-01 BMatC= 1.17D-15 BMatP= 1.22D-13
 IDIUse=1 WtCom= 1.00D+00 WtEn= 0.00D+00
 Coeff-Com: -0.197D-06 0.148D-05 0.208D-04-0.131D-03-0.323D-04 0.163D-01
 Coeff-Com: -0.185D+00 0.117D+01
 Coeff:     -0.197D-06 0.148D-05 0.208D-04-0.131D-03-0.323D-04 0.163D-01
 Coeff:     -0.185D+00 0.117D+01
 Gap=     0.631 Goal=   None    Shift=    0.000
 RMSDP=3.33D-09 MaxDP=2.10D-08 DE=-2.42D-13 OVMax= 2.20D-08

 SCF Done:  E(RHF) =  -76.3949718001     A.U. after    8 cycles
            NFock=  8  Conv=0.33D-08     -V/T= 2.0052
 KE= 7.599987194934D+01 PE=-2.269946260574D+02 EE= 4.985131392410D+01
 Leave Link  502 at Fri Jul 15 09:20:47 2016, MaxMem=    33554432 cpu:         0.1
 (Enter /share/sw/non-free/gaussian/g09/l601.exe)
 Copying SCF densities to generalized density rwf, IOpCl= 0 IROHF=0.

 **********************************************************************

            Population analysis using the SCF density.

 **********************************************************************

 Alpha  occ. eigenvalues --  -11.18622 -11.18417  -1.03087  -0.75295  -0.67444
 Alpha  occ. eigenvalues --   -0.40871  -0.40871
 Alpha virt. eigenvalues --    0.22180   0.22180   0.27330   0.32575   0.68203
 Alpha virt. eigenvalues --    0.92427   0.96017   0.96017   1.09264   1.09264
 Alpha virt. eigenvalues --    1.26282   1.31812   1.52084   1.63910   2.28022
          Condensed to atoms (all electrons):
               1          2          3          4
     1  C    4.929455   0.348617   1.064982  -0.006486
     2  H    0.348617   0.320711  -0.006486   0.000590
     3  C    1.064982  -0.006486   4.929455   0.348617
     4  H   -0.006486   0.000590   0.348617   0.320711
 Mulliken charges:
               1
     1  C   -0.336568
     2  H    0.336568
     3  C   -0.336568
     4  H    0.336568
 Sum of Mulliken charges =   0.00000
 Mulliken charges with hydrogens summed into heavy atoms:
               1
     1  C    0.000000
     3  C    0.000000
 Electronic spatial extent (au):  <R**2>=            235.5178
 Charge=              0.0000 electrons
 Dipole moment (field-independent basis, Debye):
    X=              0.0000    Y=              0.0000    Z=              0.0000  Tot=              0.0000
 Quadrupole moment (field-independent basis, Debye-Ang):
   XX=             -6.7838   YY=            -13.6697   ZZ=            -13.6697
   XY=              0.0000   XZ=              0.0000   YZ=              0.0000
 Traceless Quadrupole moment (field-independent basis, Debye-Ang):
   XX=              4.5906   YY=             -2.2953   ZZ=             -2.2953
   XY=              0.0000   XZ=              0.0000   YZ=              0.0000
 Octapole moment (field-independent basis, Debye-Ang**2):
  XXX=             38.0474  YYY=             -0.8169  ZZZ=              0.0000  XYY=             25.5557
  XXY=             -0.1351  XXZ=              0.0000  XZZ=             25.5557  YZZ=             -0.2723
  YYZ=              0.0000  XYZ=              0.0000
 Hexadecapole moment (field-independent basis, Debye-Ang**3):
 XXXX=           -176.4343 YYYY=            -14.3347 ZZZZ=            -14.3022 XXXY=              0.7579
 XXXZ=              0.0000 YYYX=              1.5272 YYYZ=              0.0000 ZZZX=              0.0000
 ZZZY=              0.0000 XXYY=            -59.6692 XXZZ=            -59.6665 YYZZ=             -4.7728
 XXYZ=              0.0000 YYXZ=              0.0000 ZZXY=              0.5091
 N-N= 2.474846838391D+01 E-N=-2.269946260421D+02  KE= 7.599987194934D+01
 No NMR shielding tensors so no spin-rotation constants.
 Leave Link  601 at Fri Jul 15 09:20:47 2016, MaxMem=    33554432 cpu:         0.1
 (Enter /share/sw/non-free/gaussian/g09/l701.exe)
 Compute integral first derivatives.
 ... and contract with generalized density number  0.
 Leave Link  701 at Fri Jul 15 09:20:48 2016, MaxMem=    33554432 cpu:         0.1
 (Enter /share/sw/non-free/gaussian/g09/l702.exe)
 L702 exits ... SP integral derivatives will be done elsewhere.
 Leave Link  702 at Fri Jul 15 09:20:48 2016, MaxMem=    33554432 cpu:         0.0
 (Enter /share/sw/non-free/gaussian/g09/l703.exe)
 Compute integral first derivatives, UseDBF=F ICtDFT=           0.
 Integral derivatives from FoFJK, PRISM(SPDF).
 Calling FoFJK, ICntrl=      2127 FMM=F ISym2X=0 I1Cent= 0 IOpClX= 0 NMat=1 NMatS=1 NMatT=0.
 FoFJK:  IHMeth= 1 ICntrl=    2127 DoSepK=F KAlg= 0 I1Cent=   0 FoldK=F
 IRaf=         0 NMat=   1 IRICut=       1 DoRegI=T DoRafI=F ISym2E= 0.
 FoFCou: FMM=F IPFlag=           0 FMFlag=      100000 FMFlg1=         800
         NFxFlg=           0 DoJE=F BraDBF=F KetDBF=F FulRan=T
         wScrn=  0.000000 ICntrl=    2127 IOpCl=  0 I1Cent=           0 NGrid=           0
         NMat0=    1 NMatS0=      1 NMatT0=    0 NMatD0=    1 NMtDS0=    0 NMtDT0=    0
 Symmetry not used in FoFCou.
 Leave Link  703 at Fri Jul 15 09:20:48 2016, MaxMem=    33554432 cpu:         0.1
 (Enter /share/sw/non-free/gaussian/g09/l716.exe)
 Dipole        =-7.88258347D-15-2.08860707D-15-1.02562787D-15
 -------------------------------------------------------------------
 Center     Atomic                   Forces (Hartrees/Bohr)
 Number     Number              X              Y              Z
 -------------------------------------------------------------------
      1        6           0.016570813    0.000000000    0.000000000
      2        1           0.015381581    0.000000000    0.000000000
      3        6          -0.016570813    0.000000000    0.000000000
      4        1          -0.015381581    0.000000000    0.000000000
 -------------------------------------------------------------------
 Cartesian Forces:  Max     0.016570813 RMS     0.009230248
 Leave Link  716 at Fri Jul 15 09:20:48 2016, MaxMem=    33554432 cpu:         0.0
 (Enter /share/sw/non-free/gaussian/g09/l103.exe)

 GradGradGradGradGradGradGradGradGradGradGradGradGradGradGradGradGradGrad
 Berny optimization.
 FormGI is forming the generalized inverse of G from B-inverse, IUseBI=4.
 Internal  Forces:  Max     0.031952394 RMS     0.014609887
 Search for a local minimum.
 Step number   1 out of a maximum of   20
 All quantities printed in internal units (Hartrees-Bohrs-Radians)
 RMS Force = .14610D-01 SwitMx=.10000D-02 MixMth= 1
 Mixed Optimization -- RFO/linear search
 Second derivative matrix not updated -- first step.
 The second derivative matrix:
                          R1        R2        R3        A1        A2
           R1           0.37230
           R2           0.00000   1.04222
           R3           0.00000   0.00000   0.37230
           A1           0.00000   0.00000   0.00000   0.04718
           A2           0.00000   0.00000   0.00000   0.00000   0.00499
           A3           0.00000   0.00000   0.00000   0.00000   0.00000
           A4           0.00000   0.00000   0.00000   0.00000   0.00000
                          A3        A4
           A3           0.04718
           A4           0.00000   0.00499
 ITU=  0
     Eigenvalues ---    0.00499   0.00499   0.04718   0.04718   0.37230
     Eigenvalues ---    0.37230   1.04222
 RFO step:  Lambda=-2.24086450D-03 EMin= 4.99391718D-03
 Linear search not attempted -- first point.
 Iteration  1 RMS(Cart)=  0.03121742 RMS(Int)=  0.00000001
 Iteration  2 RMS(Cart)=  0.00000001 RMS(Int)=  0.00000002
 ITry= 1 IFail=0 DXMaxC= 5.64D-02 DCOld= 1.00D+10 DXMaxT= 3.00D-01 DXLimC= 3.00D+00 Rises=F
 Variable       Old X    -DE/DX   Delta X   Delta X   Delta X     New X
                                 (Linear)    (Quad)   (Total)
    R1        2.02201  -0.01538   0.00000  -0.04107  -0.04107   1.98094
    R2        2.26994  -0.03195   0.00000  -0.03059  -0.03059   2.23935
    R3        2.02201  -0.01538   0.00000  -0.04107  -0.04107   1.98094
    A1        3.14159   0.00000   0.00000   0.00000   0.00000   3.14159
    A2        3.14159   0.00000   0.00000   0.00000   0.00000   3.14159
    A3        3.14159   0.00000   0.00000   0.00000   0.00000   3.14159
    A4        3.14159   0.00000   0.00000   0.00000   0.00000   3.14159
         Item               Value     Threshold  Converged?
 Maximum Force            0.031952     0.000450     NO 
 RMS     Force            0.014610     0.000300     NO 
 Maximum Displacement     0.056364     0.001800     NO 
 RMS     Displacement     0.031217     0.001200     NO 
 Predicted change in Energy=-1.125260D-03
 Lowest energy point so far.  Saving SCF results.
 GradGradGradGradGradGradGradGradGradGradGradGradGradGradGradGradGradGrad

 Leave Link  103 at Fri Jul 15 09:20:48 2016, MaxMem=    33554432 cpu:         0.0
 (Enter /share/sw/non-free/gaussian/g09/l202.exe)
                          Input orientation:                          
 ---------------------------------------------------------------------
 Center     Atomic      Atomic             Coordinates (Angstroms)
 Number     Number       Type             X           Y           Z
 ---------------------------------------------------------------------
      1          6           0       -2.462025    0.019920    0.000000
      2          1           0       -3.510293    0.019920    0.000000
      3          6           0       -1.277014    0.019920    0.000000
      4          1           0       -0.228746    0.019920    0.000000
 ---------------------------------------------------------------------
                    Distance matrix (angstroms):
                    1          2          3          4
     1  C    0.000000
     2  H    1.048268   0.000000
     3  C    1.185011   2.233279   0.000000
     4  H    2.233279   3.281547   1.048268   0.000000
 Symmetry turned off by external request.
 Stoichiometry    C2H2
 Framework group  D*H[C*(C.CH),X(H)]
 NUMDOF-- UNRECOGNIZED SYMMETRIC SUBSPACE, ICHAR= X   "
 Deg. of freedom    -1
 Full point group                         NOp   0
 Rotational constants (GHZ):      0.0000000     36.4844028     36.4844028
 Leave Link  202 at Fri Jul 15 09:20:48 2016, MaxMem=    33554432 cpu:         0.0
 (Enter /share/sw/non-free/gaussian/g09/l301.exe)
 Standard basis: 3-21G (6D, 7F)
 Ernie: Thresh=  0.10000D-02 Tol=  0.10000D-05 Strict=F.
    22 basis functions,    36 primitive gaussians,    22 cartesian basis functions
     7 alpha electrons        7 beta electrons
       nuclear repulsion energy        25.1385156942 Hartrees.
 IExCor=    0 DFT=F Ex=HF Corr=None ExCW=0 ScaHFX=  1.000000
 ScaDFX=  1.000000  1.000000  1.000000  1.000000 ScalE2=  1.000000  1.000000
 IRadAn=      0 IRanWt=     -1 IRanGd=            0 ICorTp=0 IEmpDi=  4
 NAtoms=    4 NActive=    4 NUniq=    4 SFac= 1.00D+00 NAtFMM=   60 NAOKFM=F Big=F
 Integral buffers will be    131072 words long.
 Raffenetti 1 integral format.
 Two-electron integral symmetry is turned off.
 Leave Link  301 at Fri Jul 15 09:20:48 2016, MaxMem=    33554432 cpu:         0.1
 (Enter /share/sw/non-free/gaussian/g09/l302.exe)
 NPDir=0 NMtPBC=     1 NCelOv=     1 NCel=       1 NClECP=     1 NCelD=      1
         NCelK=      1 NCelE2=     1 NClLst=     1 CellRange=     0.0.
 One-electron integrals computed using PRISM.
 NBasis=    22 RedAO= T EigKep=  2.06D-03  NBF=    22
 NBsUse=    22 1.00D-06 EigRej= -1.00D+00 NBFU=    22
 Leave Link  302 at Fri Jul 15 09:20:48 2016, MaxMem=    33554432 cpu:         0.1
 (Enter /share/sw/non-free/gaussian/g09/l303.exe)
 DipDrv:  MaxL=1.
 Leave Link  303 at Fri Jul 15 09:20:48 2016, MaxMem=    33554432 cpu:         0.0
 (Enter /share/sw/non-free/gaussian/g09/l401.exe)
 Initial guess from the checkpoint file:  "/scratch/users/ekwan16/numfreq/Gau-137631.chk"
 B after Tr=     0.000000    0.037644    0.037644
         Rot=    0.707109    0.707105    0.000000    0.000000 Ang=  90.00 deg.
 Guess basis will be translated and rotated to current coordinates.
 JPrj=2 DoOrth=T DoCkMO=T.
 Generating alternative initial guess.
 ExpMin= 1.83D-01 ExpMax= 1.72D+02 ExpMxC= 1.72D+02 IAcc=1 IRadAn=         1 AccDes= 0.00D+00
 Harris functional with IExCor=  205 and IRadAn=       1 diagonalized for initial guess.
 HarFok:  IExCor=  205 AccDes= 0.00D+00 IRadAn=         1 IDoV= 1 UseB2=F ITyADJ=14
 ICtDFT=  3500011 ScaDFX=  1.000000  1.000000  1.000000  1.000000
 FoFCou: FMM=F IPFlag=           0 FMFlag=      100000 FMFlg1=           0
         NFxFlg=           0 DoJE=T BraDBF=F KetDBF=T FulRan=T
         wScrn=  0.000000 ICntrl=     500 IOpCl=  0 I1Cent=   200000004 NGrid=           0
         NMat0=    1 NMatS0=      1 NMatT0=    0 NMatD0=    1 NMtDS0=    0 NMtDT0=    0
 Symmetry not used in FoFCou.
 Harris En= -76.5046004439928    
 Leave Link  401 at Fri Jul 15 09:20:48 2016, MaxMem=    33554432 cpu:         0.2
 (Enter /share/sw/non-free/gaussian/g09/l502.exe)
 Closed shell SCF:
 Using DIIS extrapolation, IDIIS=  1040.
 Two-electron integral symmetry not used.
 Keep R1 ints in memory in canonical form, NReq=856514.
 IVT=       20274 IEndB=       20274 NGot=    33554432 MDV=    33502028
 LenX=    33502028 LenY=    33501103
 Requested convergence on RMS density matrix=1.00D-08 within 128 cycles.
 Requested convergence on MAX density matrix=1.00D-06.
 Requested convergence on             energy=1.00D-06.
 No special actions if energy rises.
 FoFCou: FMM=F IPFlag=           0 FMFlag=           0 FMFlg1=           0
         NFxFlg=           0 DoJE=F BraDBF=F KetDBF=F FulRan=T
         wScrn=  0.000000 ICntrl=     600 IOpCl=  0 I1Cent=           0 NGrid=           0
         NMat0=    1 NMatS0=    253 NMatT0=    0 NMatD0=    1 NMtDS0=    0 NMtDT0=    0
 Symmetry not used in FoFCou.

 Cycle   1  Pass 1  IDiag  1:
 E= -76.3955255729539    
 DIIS: error= 5.15D-03 at cycle   1 NSaved=   1.
 NSaved= 1 IEnMin= 1 EnMin= -76.3955255729539     IErMin= 1 ErrMin= 5.15D-03
 ErrMax= 5.15D-03  0.00D+00 EMaxC= 1.00D-01 BMatC= 4.15D-04 BMatP= 4.15D-04
 IDIUse=3 WtCom= 9.48D-01 WtEn= 5.15D-02
 Coeff-Com:  0.100D+01
 Coeff-En:   0.100D+01
 Coeff:      0.100D+01
 Gap=     1.121 Goal=   None    Shift=    0.000
 GapD=    1.121 DampG=2.000 DampE=1.000 DampFc=2.0000 IDamp=-1.
 RMSDP=1.12D-03 MaxDP=4.73D-03              OVMax= 5.92D-03

 Cycle   2  Pass 1  IDiag  1:
 E= -76.3959152511775     Delta-E=       -0.000389678224 Rises=F Damp=F
 DIIS: error= 9.09D-04 at cycle   2 NSaved=   2.
 NSaved= 2 IEnMin= 2 EnMin= -76.3959152511775     IErMin= 2 ErrMin= 9.09D-04
 ErrMax= 9.09D-04  0.00D+00 EMaxC= 1.00D-01 BMatC= 1.56D-05 BMatP= 4.15D-04
 IDIUse=3 WtCom= 9.91D-01 WtEn= 9.09D-03
 Coeff-Com:  0.554D-01 0.945D+00
 Coeff-En:   0.000D+00 0.100D+01
 Coeff:      0.549D-01 0.945D+00
 Gap=     0.639 Goal=   None    Shift=    0.000
 RMSDP=1.53D-04 MaxDP=5.97D-04 DE=-3.90D-04 OVMax= 1.28D-03

 Cycle   3  Pass 1  IDiag  1:
 E= -76.3959308585511     Delta-E=       -0.000015607374 Rises=F Damp=F
 DIIS: error= 2.06D-04 at cycle   3 NSaved=   3.
 NSaved= 3 IEnMin= 3 EnMin= -76.3959308585511     IErMin= 3 ErrMin= 2.06D-04
 ErrMax= 2.06D-04  0.00D+00 EMaxC= 1.00D-01 BMatC= 5.62D-07 BMatP= 1.56D-05
 IDIUse=3 WtCom= 9.98D-01 WtEn= 2.06D-03
 Coeff-Com: -0.275D-01 0.523D-01 0.975D+00
 Coeff-En:   0.000D+00 0.000D+00 0.100D+01
 Coeff:     -0.274D-01 0.522D-01 0.975D+00
 Gap=     0.639 Goal=   None    Shift=    0.000
 RMSDP=3.39D-05 MaxDP=1.96D-04 DE=-1.56D-05 OVMax= 2.90D-04

 Cycle   4  Pass 1  IDiag  1:
 E= -76.3959315620852     Delta-E=       -0.000000703534 Rises=F Damp=F
 DIIS: error= 2.65D-05 at cycle   4 NSaved=   4.
 NSaved= 4 IEnMin= 4 EnMin= -76.3959315620852     IErMin= 4 ErrMin= 2.65D-05
 ErrMax= 2.65D-05  0.00D+00 EMaxC= 1.00D-01 BMatC= 8.87D-09 BMatP= 5.62D-07
 IDIUse=1 WtCom= 1.00D+00 WtEn= 0.00D+00
 Coeff-Com:  0.462D-02-0.212D-01-0.193D+00 0.121D+01
 Coeff:      0.462D-02-0.212D-01-0.193D+00 0.121D+01
 Gap=     0.639 Goal=   None    Shift=    0.000
 RMSDP=1.09D-05 MaxDP=5.17D-05 DE=-7.04D-07 OVMax= 5.55D-05

 Cycle   5  Pass 1  IDiag  1:
 E= -76.3959315790681     Delta-E=       -0.000000016983 Rises=F Damp=F
 DIIS: error= 4.39D-06 at cycle   5 NSaved=   5.
 NSaved= 5 IEnMin= 5 EnMin= -76.3959315790681     IErMin= 5 ErrMin= 4.39D-06
 ErrMax= 4.39D-06  0.00D+00 EMaxC= 1.00D-01 BMatC= 1.65D-10 BMatP= 8.87D-09
 IDIUse=1 WtCom= 1.00D+00 WtEn= 0.00D+00
 Coeff-Com: -0.579D-03 0.360D-02 0.274D-01-0.279D+00 0.125D+01
 Coeff:     -0.579D-03 0.360D-02 0.274D-01-0.279D+00 0.125D+01
 Gap=     0.639 Goal=   None    Shift=    0.000
 RMSDP=1.26D-06 MaxDP=5.40D-06 DE=-1.70D-08 OVMax= 1.05D-05

 Cycle   6  Pass 1  IDiag  1:
 E= -76.3959315794215     Delta-E=       -0.000000000353 Rises=F Damp=F
 DIIS: error= 2.31D-07 at cycle   6 NSaved=   6.
 NSaved= 6 IEnMin= 6 EnMin= -76.3959315794215     IErMin= 6 ErrMin= 2.31D-07
 ErrMax= 2.31D-07  0.00D+00 EMaxC= 1.00D-01 BMatC= 1.17D-12 BMatP= 1.65D-10
 IDIUse=1 WtCom= 1.00D+00 WtEn= 0.00D+00
 Coeff-Com:  0.119D-03-0.820D-03-0.577D-02 0.639D-01-0.321D+00 0.126D+01
 Coeff:      0.119D-03-0.820D-03-0.577D-02 0.639D-01-0.321D+00 0.126D+01
 Gap=     0.639 Goal=   None    Shift=    0.000
 RMSDP=1.31D-07 MaxDP=9.40D-07 DE=-3.53D-10 OVMax= 6.83D-07

 Cycle   7  Pass 1  IDiag  1:
 E= -76.3959315794240     Delta-E=       -0.000000000002 Rises=F Damp=F
 DIIS: error= 2.16D-08 at cycle   7 NSaved=   7.
 NSaved= 7 IEnMin= 7 EnMin= -76.3959315794240     IErMin= 7 ErrMin= 2.16D-08
 ErrMax= 2.16D-08  0.00D+00 EMaxC= 1.00D-01 BMatC= 8.70D-15 BMatP= 1.17D-12
 IDIUse=1 WtCom= 1.00D+00 WtEn= 0.00D+00
 Coeff-Com: -0.165D-04 0.124D-03 0.800D-03-0.939D-02 0.486D-01-0.238D+00
 Coeff-Com:  0.120D+01
 Coeff:     -0.165D-04 0.124D-03 0.800D-03-0.939D-02 0.486D-01-0.238D+00
 Coeff:      0.120D+01
 Gap=     0.639 Goal=   None    Shift=    0.000
 RMSDP=8.47D-09 MaxDP=3.15D-08 DE=-2.47D-12 OVMax= 6.97D-08

 SCF Done:  E(RHF) =  -76.3959315794     A.U. after    7 cycles
            NFock=  7  Conv=0.85D-08     -V/T= 2.0032
 KE= 7.615110214812D+01 PE=-2.278958668787D+02 EE= 5.021031745696D+01
 Leave Link  502 at Fri Jul 15 09:20:48 2016, MaxMem=    33554432 cpu:         0.1
 (Enter /share/sw/non-free/gaussian/g09/l701.exe)
 Compute integral first derivatives.
 ... and contract with generalized density number  0.
 Leave Link  701 at Fri Jul 15 09:20:48 2016, MaxMem=    33554432 cpu:         0.1
 (Enter /share/sw/non-free/gaussian/g09/l702.exe)
 L702 exits ... SP integral derivatives will be done elsewhere.
 Leave Link  702 at Fri Jul 15 09:20:48 2016, MaxMem=    33554432 cpu:         0.0
 (Enter /share/sw/non-free/gaussian/g09/l703.exe)
 Compute integral first derivatives, UseDBF=F ICtDFT=           0.
 Integral derivatives from FoFJK, PRISM(SPDF).
 Calling FoFJK, ICntrl=      2127 FMM=F ISym2X=0 I1Cent= 0 IOpClX= 0 NMat=1 NMatS=1 NMatT=0.
 FoFJK:  IHMeth= 1 ICntrl=    2127 DoSepK=F KAlg= 0 I1Cent=   0 FoldK=F
 IRaf=         0 NMat=   1 IRICut=       1 DoRegI=T DoRafI=F ISym2E= 0.
 FoFCou: FMM=F IPFlag=           0 FMFlag=      100000 FMFlg1=         800
         NFxFlg=           0 DoJE=F BraDBF=F KetDBF=F FulRan=T
         wScrn=  0.000000 ICntrl=    2127 IOpCl=  0 I1Cent=           0 NGrid=           0
         NMat0=    1 NMatS0=      1 NMatT0=    0 NMatD0=    1 NMtDS0=    0 NMtDT0=    0
 Symmetry not used in FoFCou.
 Leave Link  703 at Fri Jul 15 09:20:49 2016, MaxMem=    33554432 cpu:         0.1
 (Enter /share/sw/non-free/gaussian/g09/l716.exe)
 Dipole        = 5.05706588D-14 1.04357125D-08-1.04356906D-08
 -------------------------------------------------------------------
 Center     Atomic                   Forces (Hartrees/Bohr)
 Number     Number              X              Y              Z
 -------------------------------------------------------------------
      1        6          -0.003932540   -0.000000001    0.000000001
      2        1          -0.002215585    0.000000000    0.000000000
      3        6           0.003932540    0.000000002   -0.000000002
      4        1           0.002215585   -0.000000001    0.000000001
 -------------------------------------------------------------------
 Cartesian Forces:  Max     0.003932540 RMS     0.001842719
 Leave Link  716 at Fri Jul 15 09:20:49 2016, MaxMem=    33554432 cpu:         0.0
 (Enter /share/sw/non-free/gaussian/g09/l103.exe)

 GradGradGradGradGradGradGradGradGradGradGradGradGradGradGradGradGradGrad
 Berny optimization.
 Using GEDIIS/GDIIS optimizer.
 Red2BG is reusing G-inverse.
 Internal  Forces:  Max     0.006148125 RMS     0.002608149
 Search for a local minimum.
 Step number   2 out of a maximum of   20
 All quantities printed in internal units (Hartrees-Bohrs-Radians)
 RMS Force = .26081D-02 SwitMx=.10000D-02 MixMth= 1
 Mixed Optimization -- RFO/linear search
 Update second derivatives using D2CorX and points    1    2
 DE= -9.60D-04 DEPred=-1.13D-03 R= 8.53D-01
 TightC=F SS=  1.41D+00  RLast= 6.56D-02 DXNew= 5.0454D-01 1.9693D-01
 Trust test= 8.53D-01 RLast= 6.56D-02 DXMaxT set to 3.00D-01
 The second derivative matrix:
                          R1        R2        R3        A1        A2
           R1           0.38613
           R2           0.03830   1.14260
           R3           0.01383   0.03830   0.38613
           A1           0.00000   0.00000   0.00000   0.04718
           A2           0.00000   0.00000   0.00000   0.00000   0.00499
           A3           0.00000   0.00000   0.00000   0.00000   0.00000
           A4           0.00000   0.00000   0.00000   0.00000   0.00000
                          A3        A4
           A3           0.04718
           A4           0.00000   0.00499
 ITU=  1  0
 Use linear search instead of GDIIS.
     Eigenvalues ---    0.00499   0.00499   0.04718   0.04718   0.37230
     Eigenvalues ---    0.39603   1.14653
 RFO step:  Lambda=-1.31081089D-06 EMin= 4.99391718D-03
 Quartic linear search produced a step of -0.13514.
 Iteration  1 RMS(Cart)=  0.00403785 RMS(Int)=  0.00000001
 SLEqS3 Cycle:   121 Max:0.147539E-12 RMS:0.825231E-13 Conv:0.132017E-13
 SLEqS3 Cycle:   121 Max:0.147539E-12 RMS:0.825231E-13 Conv:0.132017E-13
 Iteration  2 RMS(Cart)=  0.00000001 RMS(Int)=  0.00000001
 ITry= 1 IFail=0 DXMaxC= 7.14D-03 DCOld= 1.00D+10 DXMaxT= 3.00D-01 DXLimC= 3.00D+00 Rises=F
 Variable       Old X    -DE/DX   Delta X   Delta X   Delta X     New X
                                 (Linear)    (Quad)   (Total)
    R1        1.98094   0.00222   0.00555  -0.00090   0.00465   1.98559
    R2        2.23935   0.00615   0.00413   0.00083   0.00496   2.24431
    R3        1.98094   0.00222   0.00555  -0.00090   0.00465   1.98559
    A1        3.14159   0.00000   0.00000   0.00000   0.00000   3.14159
    A2        3.14159   0.00000   0.00000   0.00000   0.00000   3.14159
    A3        3.14159   0.00000   0.00000   0.00000   0.00000   3.14159
    A4        3.14159   0.00000   0.00000   0.00000   0.00000   3.14159
         Item               Value     Threshold  Converged?
 Maximum Force            0.006148     0.000450     NO 
 RMS     Force            0.002608     0.000300     NO 
 Maximum Displacement     0.007135     0.001800     NO 
 RMS     Displacement     0.004038     0.001200     NO 
 Predicted change in Energy=-2.663144D-05
 Lowest energy point so far.  Saving SCF results.
 GradGradGradGradGradGradGradGradGradGradGradGradGradGradGradGradGradGrad

 Leave Link  103 at Fri Jul 15 09:20:49 2016, MaxMem=    33554432 cpu:         0.0
 (Enter /share/sw/non-free/gaussian/g09/l202.exe)
                          Input orientation:                          
 ---------------------------------------------------------------------
 Center     Atomic      Atomic             Coordinates (Angstroms)
 Number     Number       Type             X           Y           Z
 ---------------------------------------------------------------------
      1          6           0       -2.463338    0.019920    0.000000
      2          1           0       -3.514069    0.019920    0.000000
      3          6           0       -1.275701    0.019920    0.000000
      4          1           0       -0.224970    0.019920    0.000000
 ---------------------------------------------------------------------
                    Distance matrix (angstroms):
                    1          2          3          4
     1  C    0.000000
     2  H    1.050731   0.000000
     3  C    1.187637   2.238368   0.000000
     4  H    2.238368   3.289099   1.050731   0.000000
 Symmetry turned off by external request.
 Stoichiometry    C2H2
 Framework group  C*V[C*(HCCH)]
 Deg. of freedom     3
 Full point group                 C*V     NOp   4
 Rotational constants (GHZ):      0.0000000     36.3208316     36.3208316
 Leave Link  202 at Fri Jul 15 09:20:49 2016, MaxMem=    33554432 cpu:         0.0
 (Enter /share/sw/non-free/gaussian/g09/l301.exe)
 Standard basis: 3-21G (6D, 7F)
 Ernie: Thresh=  0.10000D-02 Tol=  0.10000D-05 Strict=F.
    22 basis functions,    36 primitive gaussians,    22 cartesian basis functions
     7 alpha electrons        7 beta electrons
       nuclear repulsion energy        25.0819402567 Hartrees.
 IExCor=    0 DFT=F Ex=HF Corr=None ExCW=0 ScaHFX=  1.000000
 ScaDFX=  1.000000  1.000000  1.000000  1.000000 ScalE2=  1.000000  1.000000
 IRadAn=      0 IRanWt=     -1 IRanGd=            0 ICorTp=0 IEmpDi=  4
 NAtoms=    4 NActive=    4 NUniq=    4 SFac= 1.00D+00 NAtFMM=   60 NAOKFM=F Big=F
 Integral buffers will be    131072 words long.
 Raffenetti 1 integral format.
 Two-electron integral symmetry is turned off.
 Leave Link  301 at Fri Jul 15 09:20:49 2016, MaxMem=    33554432 cpu:         0.0
 (Enter /share/sw/non-free/gaussian/g09/l302.exe)
 NPDir=0 NMtPBC=     1 NCelOv=     1 NCel=       1 NClECP=     1 NCelD=      1
         NCelK=      1 NCelE2=     1 NClLst=     1 CellRange=     0.0.
 One-electron integrals computed using PRISM.
 NBasis=    22 RedAO= T EigKep=  2.09D-03  NBF=    22
 NBsUse=    22 1.00D-06 EigRej= -1.00D+00 NBFU=    22
 Leave Link  302 at Fri Jul 15 09:20:49 2016, MaxMem=    33554432 cpu:         0.1
 (Enter /share/sw/non-free/gaussian/g09/l303.exe)
 DipDrv:  MaxL=1.
 Leave Link  303 at Fri Jul 15 09:20:49 2016, MaxMem=    33554432 cpu:         0.0
 (Enter /share/sw/non-free/gaussian/g09/l401.exe)
 Initial guess from the checkpoint file:  "/scratch/users/ekwan16/numfreq/Gau-137631.chk"
 B after Tr=     0.000000    0.001827   -0.011584
         Rot=    0.987794   -0.155765    0.000000    0.000000 Ang= -17.92 deg.
 Guess basis will be translated and rotated to current coordinates.
 JPrj=2 DoOrth=T DoCkMO=T.
 Leave Link  401 at Fri Jul 15 09:20:49 2016, MaxMem=    33554432 cpu:         0.1
 (Enter /share/sw/non-free/gaussian/g09/l502.exe)
 Closed shell SCF:
 Using DIIS extrapolation, IDIIS=  1040.
 Two-electron integral symmetry not used.
 Keep R1 ints in memory in canonical form, NReq=856514.
 IVT=       20274 IEndB=       20274 NGot=    33554432 MDV=    33502028
 LenX=    33502028 LenY=    33501103
 Requested convergence on RMS density matrix=1.00D-08 within 128 cycles.
 Requested convergence on MAX density matrix=1.00D-06.
 Requested convergence on             energy=1.00D-06.
 No special actions if energy rises.
 FoFCou: FMM=F IPFlag=           0 FMFlag=           0 FMFlg1=           0
         NFxFlg=           0 DoJE=F BraDBF=F KetDBF=F FulRan=T
         wScrn=  0.000000 ICntrl=     600 IOpCl=  0 I1Cent=           0 NGrid=           0
         NMat0=    1 NMatS0=    253 NMatT0=    0 NMatD0=    1 NMtDS0=    0 NMtDT0=    0
 Symmetry not used in FoFCou.

 Cycle   1  Pass 1  IDiag  1:
 E= -76.3959492774155    
 DIIS: error= 6.68D-04 at cycle   1 NSaved=   1.
 NSaved= 1 IEnMin= 1 EnMin= -76.3959492774155     IErMin= 1 ErrMin= 6.68D-04
 ErrMax= 6.68D-04  0.00D+00 EMaxC= 1.00D-01 BMatC= 8.53D-06 BMatP= 8.53D-06
 IDIUse=3 WtCom= 9.93D-01 WtEn= 6.68D-03
 Coeff-Com:  0.100D+01
 Coeff-En:   0.100D+01
 Coeff:      0.100D+01
 Gap=     1.138 Goal=   None    Shift=    0.000
 RMSDP=1.56D-04 MaxDP=7.19D-04              OVMax= 7.44D-04

 Cycle   2  Pass 1  IDiag  1:
 E= -76.3959565544097     Delta-E=       -0.000007276994 Rises=F Damp=F
 DIIS: error= 1.40D-04 at cycle   2 NSaved=   2.
 NSaved= 2 IEnMin= 2 EnMin= -76.3959565544097     IErMin= 2 ErrMin= 1.40D-04
 ErrMax= 1.40D-04  0.00D+00 EMaxC= 1.00D-01 BMatC= 3.08D-07 BMatP= 8.53D-06
 IDIUse=3 WtCom= 9.99D-01 WtEn= 1.40D-03
 Coeff-Com:  0.655D-01 0.934D+00
 Coeff-En:   0.000D+00 0.100D+01
 Coeff:      0.654D-01 0.935D+00
 Gap=     0.638 Goal=   None    Shift=    0.000
 RMSDP=2.28D-05 MaxDP=9.90D-05 DE=-7.28D-06 OVMax= 1.96D-04

 Cycle   3  Pass 1  IDiag  1:
 E= -76.3959568598179     Delta-E=       -0.000000305408 Rises=F Damp=F
 DIIS: error= 2.35D-05 at cycle   3 NSaved=   3.
 NSaved= 3 IEnMin= 3 EnMin= -76.3959568598179     IErMin= 3 ErrMin= 2.35D-05
 ErrMax= 2.35D-05  0.00D+00 EMaxC= 1.00D-01 BMatC= 9.88D-09 BMatP= 3.08D-07
 IDIUse=1 WtCom= 1.00D+00 WtEn= 0.00D+00
 Coeff-Com: -0.245D-01 0.493D-01 0.975D+00
 Coeff:     -0.245D-01 0.493D-01 0.975D+00
 Gap=     0.638 Goal=   None    Shift=    0.000
 RMSDP=4.97D-06 MaxDP=3.09D-05 DE=-3.05D-07 OVMax= 3.06D-05

 Cycle   4  Pass 1  IDiag  1:
 E= -76.3959568722130     Delta-E=       -0.000000012395 Rises=F Damp=F
 DIIS: error= 2.90D-06 at cycle   4 NSaved=   4.
 NSaved= 4 IEnMin= 4 EnMin= -76.3959568722130     IErMin= 4 ErrMin= 2.90D-06
 ErrMax= 2.90D-06  0.00D+00 EMaxC= 1.00D-01 BMatC= 1.33D-10 BMatP= 9.88D-09
 IDIUse=1 WtCom= 1.00D+00 WtEn= 0.00D+00
 Coeff-Com:  0.334D-02-0.197D-01-0.167D+00 0.118D+01
 Coeff:      0.334D-02-0.197D-01-0.167D+00 0.118D+01
 Gap=     0.638 Goal=   None    Shift=    0.000
 RMSDP=1.51D-06 MaxDP=9.22D-06 DE=-1.24D-08 OVMax= 7.21D-06

 Cycle   5  Pass 1  IDiag  1:
 E= -76.3959568724500     Delta-E=       -0.000000000237 Rises=F Damp=F
 DIIS: error= 4.21D-07 at cycle   5 NSaved=   5.
 NSaved= 5 IEnMin= 5 EnMin= -76.3959568724500     IErMin= 5 ErrMin= 4.21D-07
 ErrMax= 4.21D-07  0.00D+00 EMaxC= 1.00D-01 BMatC= 1.65D-12 BMatP= 1.33D-10
 IDIUse=1 WtCom= 1.00D+00 WtEn= 0.00D+00
 Coeff-Com: -0.411D-03 0.331D-02 0.236D-01-0.248D+00 0.122D+01
 Coeff:     -0.411D-03 0.331D-02 0.236D-01-0.248D+00 0.122D+01
 Gap=     0.638 Goal=   None    Shift=    0.000
 RMSDP=1.34D-07 MaxDP=6.13D-07 DE=-2.37D-10 OVMax= 8.74D-07

 Cycle   6  Pass 1  IDiag  1:
 E= -76.3959568724532     Delta-E=       -0.000000000003 Rises=F Damp=F
 DIIS: error= 2.58D-08 at cycle   6 NSaved=   6.
 NSaved= 6 IEnMin= 6 EnMin= -76.3959568724532     IErMin= 6 ErrMin= 2.58D-08
 ErrMax= 2.58D-08  0.00D+00 EMaxC= 1.00D-01 BMatC= 1.19D-14 BMatP= 1.65D-12
 IDIUse=1 WtCom= 1.00D+00 WtEn= 0.00D+00
 Coeff-Com:  0.996D-04-0.865D-03-0.579D-02 0.640D-01-0.337D+00 0.128D+01
 Coeff:      0.996D-04-0.865D-03-0.579D-02 0.640D-01-0.337D+00 0.128D+01
 Gap=     0.638 Goal=   None    Shift=    0.000
 RMSDP=1.14D-08 MaxDP=7.95D-08 DE=-3.18D-12 OVMax= 6.31D-08

 Cycle   7  Pass 1  IDiag  1:
 E= -76.3959568724532     Delta-E=        0.000000000000 Rises=F Damp=F
 DIIS: error= 2.80D-09 at cycle   7 NSaved=   7.
 NSaved= 7 IEnMin= 7 EnMin= -76.3959568724532     IErMin= 7 ErrMin= 2.80D-09
 ErrMax= 2.80D-09  0.00D+00 EMaxC= 1.00D-01 BMatC= 1.69D-16 BMatP= 1.19D-14
 IDIUse=1 WtCom= 1.00D+00 WtEn= 0.00D+00
 Coeff-Com: -0.154D-04 0.142D-03 0.888D-03-0.103D-01 0.553D-01-0.287D+00
 Coeff-Com:  0.124D+01
 Coeff:     -0.154D-04 0.142D-03 0.888D-03-0.103D-01 0.553D-01-0.287D+00
 Coeff:      0.124D+01
 Gap=     0.638 Goal=   None    Shift=    0.000
 RMSDP=1.40D-09 MaxDP=5.86D-09 DE=-2.84D-14 OVMax= 8.21D-09

 SCF Done:  E(RHF) =  -76.3959568725     A.U. after    7 cycles
            NFock=  7  Conv=0.14D-08     -V/T= 2.0035
 KE= 7.612943368894D+01 PE=-2.277648971003D+02 EE= 5.015756628213D+01
 Leave Link  502 at Fri Jul 15 09:20:49 2016, MaxMem=    33554432 cpu:         0.1
 (Enter /share/sw/non-free/gaussian/g09/l701.exe)
 Compute integral first derivatives.
 ... and contract with generalized density number  0.
 Leave Link  701 at Fri Jul 15 09:20:49 2016, MaxMem=    33554432 cpu:         0.1
 (Enter /share/sw/non-free/gaussian/g09/l702.exe)
 L702 exits ... SP integral derivatives will be done elsewhere.
 Leave Link  702 at Fri Jul 15 09:20:49 2016, MaxMem=    33554432 cpu:         0.0
 (Enter /share/sw/non-free/gaussian/g09/l703.exe)
 Compute integral first derivatives, UseDBF=F ICtDFT=           0.
 Integral derivatives from FoFJK, PRISM(SPDF).
 Calling FoFJK, ICntrl=      2127 FMM=F ISym2X=0 I1Cent= 0 IOpClX= 0 NMat=1 NMatS=1 NMatT=0.
 FoFJK:  IHMeth= 1 ICntrl=    2127 DoSepK=F KAlg= 0 I1Cent=   0 FoldK=F
 IRaf=         0 NMat=   1 IRICut=       1 DoRegI=T DoRafI=F ISym2E= 0.
 FoFCou: FMM=F IPFlag=           0 FMFlag=      100000 FMFlg1=         800
         NFxFlg=           0 DoJE=F BraDBF=F KetDBF=F FulRan=T
         wScrn=  0.000000 ICntrl=    2127 IOpCl=  0 I1Cent=           0 NGrid=           0
         NMat0=    1 NMatS0=      1 NMatT0=    0 NMatD0=    1 NMtDS0=    0 NMtDT0=    0
 Symmetry not used in FoFCou.
 Leave Link  703 at Fri Jul 15 09:20:49 2016, MaxMem=    33554432 cpu:         0.1
 (Enter /share/sw/non-free/gaussian/g09/l716.exe)
 Dipole        =-1.66644476D-13-1.50674171D-07 1.50673893D-07
 -------------------------------------------------------------------
 Center     Atomic                   Forces (Hartrees/Bohr)
 Number     Number              X              Y              Z
 -------------------------------------------------------------------
      1        6           0.000430697    0.000000008   -0.000000008
      2        1          -0.000120525    0.000000003   -0.000000003
      3        6          -0.000430697   -0.000000025    0.000000025
      4        1           0.000120525    0.000000015   -0.000000015
 -------------------------------------------------------------------
 Cartesian Forces:  Max     0.000430697 RMS     0.000182586
 Leave Link  716 at Fri Jul 15 09:20:49 2016, MaxMem=    33554432 cpu:         0.0
 (Enter /share/sw/non-free/gaussian/g09/l103.exe)

 GradGradGradGradGradGradGradGradGradGradGradGradGradGradGradGradGradGrad
 Berny optimization.
 Using GEDIIS/GDIIS optimizer.
 FormGI is forming the generalized inverse of G from B-inverse, IUseBI=4.
 Internal  Forces:  Max     0.000310173 RMS     0.000133769
 Search for a local minimum.
 Step number   3 out of a maximum of   20
 All quantities printed in internal units (Hartrees-Bohrs-Radians)
 RMS Force = .13377D-03 SwitMx=.10000D-02 MixMth= 2
 Mixed Optimization -- En-DIIS/RFO-DIIS
 Update second derivatives using D2CorX and points    1    2    3
 DE= -2.53D-05 DEPred=-2.66D-05 R= 9.50D-01
 TightC=F SS=  1.41D+00  RLast= 8.24D-03 DXNew= 5.0454D-01 2.4728D-02
 Trust test= 9.50D-01 RLast= 8.24D-03 DXMaxT set to 3.00D-01
 The second derivative matrix:
                          R1        R2        R3        A1        A2
           R1           0.38559
           R2           0.04808   1.21140
           R3           0.01329   0.04808   0.38559
           A1           0.00000   0.00000   0.00000   0.04718
           A2           0.00000   0.00000   0.00000   0.00000   0.00499
           A3           0.00000   0.00000   0.00000   0.00000   0.00000
           A4           0.00000   0.00000   0.00000   0.00000   0.00000
                          A3        A4
           A3           0.04718
           A4           0.00000   0.00499
 ITU=  1  1  0
 Use linear search instead of GDIIS.
     Eigenvalues ---    0.00499   0.00499   0.04718   0.04718   0.37230
     Eigenvalues ---    0.39324   1.21705
 RFO step:  Lambda=-1.65163728D-07 EMin= 4.99391718D-03
 Quartic linear search produced a step of -0.00815.
 Iteration  1 RMS(Cart)=  0.00012850 RMS(Int)=  0.00000000
 SLEqS3 Cycle:   121 Max:0.149385E-09 RMS:0.621832E-10 Conv:0.446237E-14
 Iteration  2 RMS(Cart)=  0.00000000 RMS(Int)=  0.00000000
 ITry= 1 IFail=0 DXMaxC= 1.94D-04 DCOld= 1.00D+10 DXMaxT= 3.00D-01 DXLimC= 3.00D+00 Rises=F
 Variable       Old X    -DE/DX   Delta X   Delta X   Delta X     New X
                                 (Linear)    (Quad)   (Total)
    R1        1.98559   0.00012  -0.00004   0.00037   0.00034   1.98593
    R2        2.24431  -0.00031  -0.00004  -0.00024  -0.00028   2.24403
    R3        1.98559   0.00012  -0.00004   0.00037   0.00034   1.98593
    A1        3.14159   0.00000   0.00000   0.00000   0.00000   3.14159
    A2        3.14159   0.00000   0.00000  -0.00001  -0.00001   3.14159
    A3        3.14159   0.00000   0.00000   0.00000   0.00000   3.14159
    A4        3.14159   0.00000   0.00000  -0.00001  -0.00001   3.14159
         Item               Value     Threshold  Converged?
 Maximum Force            0.000310     0.000450     YES
 RMS     Force            0.000134     0.000300     YES
 Maximum Displacement     0.000194     0.001800     YES
 RMS     Displacement     0.000128     0.001200     YES
 Predicted change in Energy=-8.437209D-08
 Optimization completed.
    -- Stationary point found.
                           ----------------------------
                           !   Optimized Parameters   !
                           ! (Angstroms and Degrees)  !
 --------------------------                            --------------------------
 ! Name  Definition              Value          Derivative Info.                !
 --------------------------------------------------------------------------------
 ! R1    R(1,2)                  1.0507         -DE/DX =    0.0001              !
 ! R2    R(1,3)                  1.1876         -DE/DX =   -0.0003              !
 ! R3    R(3,4)                  1.0507         -DE/DX =    0.0001              !
 ! A1    L(2,1,3,-2,-1)        180.0            -DE/DX =    0.0                 !
 ! A2    L(1,3,4,-2,-1)        180.0            -DE/DX =    0.0                 !
 ! A3    L(2,1,3,-3,-2)        180.0            -DE/DX =    0.0                 !
 ! A4    L(1,3,4,-3,-2)        180.0            -DE/DX =    0.0                 !
 --------------------------------------------------------------------------------
 Lowest energy point so far.  Saving SCF results.
 GradGradGradGradGradGradGradGradGradGradGradGradGradGradGradGradGradGrad

 Largest change from initial coordinates is atom    4       0.026 Angstoms.
 Leave Link  103 at Fri Jul 15 09:20:49 2016, MaxMem=    33554432 cpu:         0.0
 (Enter /share/sw/non-free/gaussian/g09/l202.exe)
                          Input orientation:                          
 ---------------------------------------------------------------------
 Center     Atomic      Atomic             Coordinates (Angstroms)
 Number     Number       Type             X           Y           Z
 ---------------------------------------------------------------------
      1          6           0       -2.463338    0.019920    0.000000
      2          1           0       -3.514069    0.019920    0.000000
      3          6           0       -1.275701    0.019920    0.000000
      4          1           0       -0.224970    0.019920    0.000000
 ---------------------------------------------------------------------
                    Distance matrix (angstroms):
                    1          2          3          4
     1  C    0.000000
     2  H    1.050731   0.000000
     3  C    1.187637   2.238368   0.000000
     4  H    2.238368   3.289099   1.050731   0.000000
 Symmetry turned off by external request.
 Stoichiometry    C2H2
 Framework group  C*V[C*(HCCH)]
 Deg. of freedom     3
 Full point group                 C*V     NOp   4
 Rotational constants (GHZ):      0.0000000     36.3208316     36.3208316
 Leave Link  202 at Fri Jul 15 09:20:49 2016, MaxMem=    33554432 cpu:         0.0
 (Enter /share/sw/non-free/gaussian/g09/l601.exe)
 Copying SCF densities to generalized density rwf, IOpCl= 0 IROHF=0.

 **********************************************************************

            Population analysis using the SCF density.

 **********************************************************************

 Alpha  occ. eigenvalues --  -11.18093 -11.17847  -1.03615  -0.75875  -0.68148
 Alpha  occ. eigenvalues --   -0.41219  -0.41219
 Alpha virt. eigenvalues --    0.22578   0.22578   0.28222   0.33195   0.68800
 Alpha virt. eigenvalues --    0.91680   0.95725   0.95725   1.09719   1.09719
 Alpha virt. eigenvalues --    1.25869   1.31731   1.54469   1.68638   2.30446
          Condensed to atoms (all electrons):
               1          2          3          4
     1  C    4.917896   0.351507   1.071491  -0.007294
     2  H    0.351507   0.321561  -0.007294   0.000627
     3  C    1.071491  -0.007294   4.917896   0.351507
     4  H   -0.007294   0.000627   0.351507   0.321561
 Mulliken charges:
               1
     1  C   -0.333599
     2  H    0.333599
     3  C   -0.333599
     4  H    0.333599
 Sum of Mulliken charges =   0.00000
 Mulliken charges with hydrogens summed into heavy atoms:
               1
     1  C    0.000000
     3  C    0.000000
 Electronic spatial extent (au):  <R**2>=            234.5206
 Charge=              0.0000 electrons
 Dipole moment (field-independent basis, Debye):
    X=              0.0000    Y=              0.0000    Z=              0.0000  Tot=              0.0000
 Quadrupole moment (field-independent basis, Debye-Ang):
   XX=             -6.9545   YY=            -13.5620   ZZ=            -13.5620
   XY=              0.0000   XZ=              0.0000   YZ=              0.0000
 Traceless Quadrupole moment (field-independent basis, Debye-Ang):
   XX=              4.4050   YY=             -2.2025   ZZ=             -2.2025
   XY=              0.0000   XZ=              0.0000   YZ=              0.0000
 Octapole moment (field-independent basis, Debye-Ang**2):
  XXX=             39.0045  YYY=             -0.8105  ZZZ=              0.0000  XYY=             25.3544
  XXY=             -0.1385  XXZ=              0.0000  XZZ=             25.3544  YZZ=             -0.2702
  YYZ=              0.0000  XYZ=              0.0000
 Hexadecapole moment (field-independent basis, Debye-Ang**3):
 XXXX=           -180.0391 YYYY=            -14.1646 ZZZZ=            -14.1323 XXXY=              0.7770
 XXXZ=              0.0000 YYYX=              1.5152 YYYZ=              0.0000 ZZZX=              0.0000
 ZZZY=              0.0000 XXYY=            -58.9608 XXZZ=            -58.9581 YYZZ=             -4.7162
 XXYZ=              0.0000 YYXZ=              0.0000 ZZXY=              0.5051
 N-N= 2.508194025675D+01 E-N=-2.277648970745D+02  KE= 7.612943368894D+01
 No NMR shielding tensors so no spin-rotation constants.
 Leave Link  601 at Fri Jul 15 09:20:50 2016, MaxMem=    33554432 cpu:         0.1
 (Enter /share/sw/non-free/gaussian/g09/l9999.exe)
 1\1\GINC-SHERLOCK-LN04\FOpt\RHF\3-21G\C2H2\EKWAN16\15-Jul-2016\0\\#p h
 f/3-21g geom=connectivity nosymmetry opt freq=noraman\\Title Card Requ
 ired\\0,1\C,-2.4633379101,0.0199203473,-0.0000000273\H,-3.5140687017,0
 .0199202593,0.0000000607\C,-1.2757008699,0.0199204519,-0.0000001319\H,
 -0.2249700783,0.0199202215,0.0000000985\\Version=ES64L-G09RevD.01\HF=-
 76.3959569\RMSD=1.405e-09\RMSF=1.826e-04\Dipole=0.,-0.0000002,0.000000
 2\Quadrupole=3.2750257,-1.6375128,-1.6375128,0.0000004,-0.0000004,0.\P
 G=C*V [C*(H1C1C1H1)]\\@


 Children are likely to live up to what you believe of them.
 -- Lady Bird Johnson
 Leave Link 9999 at Fri Jul 15 09:20:50 2016, MaxMem=    33554432 cpu:         0.0
 Job cpu time:       0 days  0 hours  0 minutes  2.3 seconds.
 File lengths (MBytes):  RWF=      5 Int=      0 D2E=      0 Chk=      1 Scr=      1
 Normal termination of Gaussian 09 at Fri Jul 15 09:20:50 2016.
 (Enter /share/sw/non-free/gaussian/g09/l1.exe)
 Link1:  Proceeding to internal job step number  2.
 --------------------------------------------------------------
 #P Geom=AllCheck Guess=TCheck SCRF=Check GenChk RHF/3-21G Freq
 --------------------------------------------------------------
 1/10=4,29=7,30=1,38=1,40=1/1,3;
 2/12=2,15=1,40=1/2;
 3/5=5,11=1,14=-4,16=1,25=1,30=1,70=2,71=2,116=1,140=1/1,2,3;
 4/5=101/1;
 5/5=2,98=1/2;
 8/6=4,10=90,11=11/1;
 11/6=1,8=1,9=11,15=111,16=1,31=1/1,2,10;
 10/6=1,31=1/2;
 6/7=2,8=2,9=2,10=2,18=1,28=1/1;
 7/8=1,10=1,25=1,30=1/1,2,3,16;
 1/10=4,30=1/3;
 99//99;
 Leave Link    1 at Fri Jul 15 09:20:50 2016, MaxMem=    33554432 cpu:         0.0
 (Enter /share/sw/non-free/gaussian/g09/l101.exe)
 Structure from the checkpoint file:  "/scratch/users/ekwan16/numfreq/Gau-137631.chk"
 -------------------
 Title Card Required
 -------------------
 Charge =  0 Multiplicity = 1
 Redundant internal coordinates found in file.
 C,0,-2.4633379101,0.0199203473,-0.0000000273
 H,0,-3.5140687017,0.0199202593,0.0000000607
 C,0,-1.2757008699,0.0199204519,-0.0000001319
 H,0,-0.2249700783,0.0199202215,0.0000000985
 Recover connectivity data from disk.
 NAtoms=      4 NQM=        4 NQMF=       0 NMMI=      0 NMMIF=      0
                NMic=       0 NMicF=      0.
                    Isotopes and Nuclear Properties:
 (Nuclear quadrupole moments (NQMom) in fm**2, nuclear magnetic moments (NMagM)
  in nuclear magnetons)

  Atom         1           2           3           4
 IAtWgt=          12           1          12           1
 AtmWgt=  12.0000000   1.0078250  12.0000000   1.0078250
 NucSpn=           0           1           0           1
 AtZEff=  -3.6000000  -1.0000000  -3.6000000  -1.0000000
 NQMom=    0.0000000   0.0000000   0.0000000   0.0000000
 NMagM=    0.0000000   2.7928460   0.0000000   2.7928460
 AtZNuc=   6.0000000   1.0000000   6.0000000   1.0000000
 Leave Link  101 at Fri Jul 15 09:20:50 2016, MaxMem=    33554432 cpu:         0.1
 (Enter /share/sw/non-free/gaussian/g09/l103.exe)

 GradGradGradGradGradGradGradGradGradGradGradGradGradGradGradGradGradGrad
 Berny optimization.
 Initialization pass.
                           ----------------------------
                           !    Initial Parameters    !
                           ! (Angstroms and Degrees)  !
 --------------------------                            --------------------------
 ! Name  Definition              Value          Derivative Info.                !
 --------------------------------------------------------------------------------
 ! R1    R(1,2)                  1.0507         calculate D2E/DX2 analytically  !
 ! R2    R(1,3)                  1.1876         calculate D2E/DX2 analytically  !
 ! R3    R(3,4)                  1.0507         calculate D2E/DX2 analytically  !
 ! A1    L(2,1,3,-2,-1)        180.0            calculate D2E/DX2 analytically  !
 ! A2    L(1,3,4,-2,-1)        180.0            calculate D2E/DX2 analytically  !
 ! A3    L(2,1,3,-3,-2)        180.0            calculate D2E/DX2 analytically  !
 ! A4    L(1,3,4,-3,-2)        180.0            calculate D2E/DX2 analytically  !
 --------------------------------------------------------------------------------
 Trust Radius=3.00D-01 FncErr=1.00D-07 GrdErr=1.00D-07
 Number of steps in this run=      2 maximum allowed number of steps=      2.
 GradGradGradGradGradGradGradGradGradGradGradGradGradGradGradGradGradGrad

 Leave Link  103 at Fri Jul 15 09:20:50 2016, MaxMem=    33554432 cpu:         0.0
 (Enter /share/sw/non-free/gaussian/g09/l202.exe)
                           Standard orientation:
 ---------------------------------------------------------------------
 Center     Atomic      Atomic             Coordinates (Angstroms)
 Number     Number       Type             X           Y           Z
 ---------------------------------------------------------------------
      1          6           0       -2.463338    0.019920    0.000000
      2          1           0       -3.514069    0.019920    0.000000
      3          6           0       -1.275701    0.019920    0.000000
      4          1           0       -0.224970    0.019920    0.000000
 ---------------------------------------------------------------------
Rotational constants (GHZ)
                    Distance matrix (angstroms):
                    1          2          3          4
     1  C    0.000000
     2  H    1.050731   0.000000
     3  C    1.187637   2.238368   0.000000
     4  H    2.238368   3.289099   1.050731   0.000000
 Symmetry turned off by external request.
 Stoichiometry    C2H2
 Framework group  C*V[C*(HCCH)]
 Deg. of freedom     3
 Full point group                 C*V     NOp   4
 Rotational constants (GHZ):      0.0000000     36.3208316     36.3208316
 Leave Link  202 at Fri Jul 15 09:20:50 2016, MaxMem=    33554432 cpu:         0.0
 (Enter /share/sw/non-free/gaussian/g09/l301.exe)
 Standard basis: 3-21G (6D, 7F)
 Ernie: Thresh=  0.10000D-02 Tol=  0.10000D-05 Strict=F.
    22 basis functions,    36 primitive gaussians,    22 cartesian basis functions
     7 alpha electrons        7 beta electrons
       nuclear repulsion energy        25.0819402567 Hartrees.
 IExCor=    0 DFT=F Ex=HF Corr=None ExCW=0 ScaHFX=  1.000000
 ScaDFX=  1.000000  1.000000  1.000000  1.000000 ScalE2=  1.000000  1.000000
 IRadAn=      0 IRanWt=     -1 IRanGd=            0 ICorTp=0 IEmpDi=  4
 NAtoms=    4 NActive=    4 NUniq=    4 SFac= 1.00D+00 NAtFMM=   60 NAOKFM=F Big=F
 Integral buffers will be    131072 words long.
 Raffenetti 1 integral format.
 Two-electron integral symmetry is turned off.
 Leave Link  301 at Fri Jul 15 09:20:50 2016, MaxMem=    33554432 cpu:         0.1
 (Enter /share/sw/non-free/gaussian/g09/l302.exe)
 NPDir=0 NMtPBC=     1 NCelOv=     1 NCel=       1 NClECP=     1 NCelD=      1
         NCelK=      1 NCelE2=     1 NClLst=     1 CellRange=     0.0.
 One-electron integrals computed using PRISM.
 NBasis=    22 RedAO= T EigKep=  2.09D-03  NBF=    22
 NBsUse=    22 1.00D-06 EigRej= -1.00D+00 NBFU=    22
 Leave Link  302 at Fri Jul 15 09:20:50 2016, MaxMem=    33554432 cpu:         0.1
 (Enter /share/sw/non-free/gaussian/g09/l303.exe)
 DipDrv:  MaxL=1.
 Leave Link  303 at Fri Jul 15 09:20:50 2016, MaxMem=    33554432 cpu:         0.0
 (Enter /share/sw/non-free/gaussian/g09/l401.exe)
 Initial guess from the checkpoint file:  "/scratch/users/ekwan16/numfreq/Gau-137631.chk"
 B after Tr=     0.000000    0.000000    0.000000
         Rot=    1.000000    0.000000    0.000000    0.000000 Ang=   0.00 deg.
 Guess basis will be translated and rotated to current coordinates.
 JPrj=2 DoOrth=T DoCkMO=T.
 Leave Link  401 at Fri Jul 15 09:20:50 2016, MaxMem=    33554432 cpu:         0.1
 (Enter /share/sw/non-free/gaussian/g09/l502.exe)
 Closed shell SCF:
 Using DIIS extrapolation, IDIIS=  1040.
 Two-electron integral symmetry not used.
 Keep R1 ints in memory in canonical form, NReq=856514.
 IVT=       20274 IEndB=       20274 NGot=    33554432 MDV=    33502028
 LenX=    33502028 LenY=    33501103
 Requested convergence on RMS density matrix=1.00D-08 within 128 cycles.
 Requested convergence on MAX density matrix=1.00D-06.
 Requested convergence on             energy=1.00D-06.
 No special actions if energy rises.
 FoFCou: FMM=F IPFlag=           0 FMFlag=           0 FMFlg1=           0
         NFxFlg=           0 DoJE=F BraDBF=F KetDBF=F FulRan=T
         wScrn=  0.000000 ICntrl=     600 IOpCl=  0 I1Cent=           0 NGrid=           0
         NMat0=    1 NMatS0=    253 NMatT0=    0 NMatD0=    1 NMtDS0=    0 NMtDT0=    0
 Symmetry not used in FoFCou.

 Cycle   1  Pass 1  IDiag  1:
 E= -76.3959568724532    
 DIIS: error= 1.83D-10 at cycle   1 NSaved=   1.
 NSaved= 1 IEnMin= 1 EnMin= -76.3959568724532     IErMin= 1 ErrMin= 1.83D-10
 ErrMax= 1.83D-10  0.00D+00 EMaxC= 1.00D-01 BMatC= 5.93D-19 BMatP= 5.93D-19
 IDIUse=1 WtCom= 1.00D+00 WtEn= 0.00D+00
 Coeff-Com:  0.100D+01
 Coeff:      0.100D+01
 Gap=     0.638 Goal=   None    Shift=    0.000
 Skip diagonalization as Alpha Fock matrix is already diagonal.
 RMSDP=0.00D+00 MaxDP=0.00D+00              OVMax= 0.00D+00

 SCF Done:  E(RHF) =  -76.3959568725     A.U. after    1 cycles
            NFock=  1  Conv=0.00D+00     -V/T= 2.0035
 KE= 7.612943368894D+01 PE=-2.277648970745D+02 EE= 5.015756625639D+01
 Leave Link  502 at Fri Jul 15 09:20:50 2016, MaxMem=    33554432 cpu:         0.0
 (Enter /share/sw/non-free/gaussian/g09/l801.exe)
 Range of M.O.s used for correlation:     1    22
 NBasis=    22 NAE=     7 NBE=     7 NFC=     0 NFV=     0
 NROrb=     22 NOA=     7 NOB=     7 NVA=    15 NVB=    15
 Leave Link  801 at Fri Jul 15 09:20:50 2016, MaxMem=    33554432 cpu:         0.0
 (Enter /share/sw/non-free/gaussian/g09/l1101.exe)
 Using compressed storage, NAtomX=     4.
 Will process      5 centers per pass.
 Leave Link 1101 at Fri Jul 15 09:20:50 2016, MaxMem=    33554432 cpu:         0.1
 (Enter /share/sw/non-free/gaussian/g09/l1102.exe)
 Symmetrizing basis deriv contribution to polar:
 IMax=3 JMax=2 DiffMx= 0.00D+00
 Leave Link 1102 at Fri Jul 15 09:20:50 2016, MaxMem=    33554432 cpu:         0.0
 (Enter /share/sw/non-free/gaussian/g09/l1110.exe)
 Forming Gx(P) for the SCF density, NAtomX=     4.
 Integral derivatives from FoFJK, PRISM(SPDF).
 Do as many integral derivatives as possible in FoFJK.
 G2DrvN: MDV=      33554296.
 G2DrvN: will do     5 centers at a time, making    1 passes.
 Calling FoFCou, ICntrl=  3107 FMM=F I1Cent=   0 AccDes= 0.00D+00.
 FoFJK:  IHMeth= 1 ICntrl=    3107 DoSepK=F KAlg= 0 I1Cent=   0 FoldK=F
 IRaf=         0 NMat=   1 IRICut=       1 DoRegI=T DoRafI=F ISym2E= 0.
 FoFCou: FMM=F IPFlag=           0 FMFlag=      100000 FMFlg1=           0
         NFxFlg=           0 DoJE=F BraDBF=F KetDBF=F FulRan=T
         wScrn=  0.000000 ICntrl=    3107 IOpCl=  0 I1Cent=           0 NGrid=           0
         NMat0=    1 NMatS0=      1 NMatT0=    0 NMatD0=    1 NMtDS0=    0 NMtDT0=    0
 Symmetry not used in FoFCou.
 End of G2Drv F.D. properties file   721 does not exist.
 End of G2Drv F.D. properties file   722 does not exist.
 End of G2Drv F.D. properties file   788 does not exist.
 Leave Link 1110 at Fri Jul 15 09:20:51 2016, MaxMem=    33554432 cpu:         0.1
 (Enter /share/sw/non-free/gaussian/g09/l1002.exe)
 Minotr:  Closed shell wavefunction.
          IDoAtm=1111
          Direct CPHF calculation.
          Differentiating once with respect to electric field.
                with respect to dipole field.
          Differentiating once with respect to nuclear coordinates.
          Requested convergence is 1.0D-08 RMS, and 1.0D-07 maximum.
          Secondary convergence is 1.0D-12 RMS, and 1.0D-12 maximum.
          NewPWx=T KeepS1=F KeepF1=F KeepIn=T MapXYZ=F SortEE=F KeepMc=T.
          MDV=      33554366 using IRadAn=       2.
 Keep R1 ints in memory in canonical form, NReq=838275.
 FoFCou: FMM=F IPFlag=           0 FMFlag=           0 FMFlg1=           0
         NFxFlg=           0 DoJE=F BraDBF=F KetDBF=F FulRan=T
         wScrn=  0.000000 ICntrl=     600 IOpCl=  0 I1Cent=           0 NGrid=           0
         NMat0=    1 NMatS0=    253 NMatT0=    0 NMatD0=    1 NMtDS0=    0 NMtDT0=    0
 Symmetry not used in FoFCou.
          Solving linear equations simultaneously, MaxMat=       0.
          There are    15 degrees of freedom in the 1st order CPHF.  IDoFFX=6 NUNeed=     3.
     12 vectors produced by pass  0 Test12= 7.00D-16 6.67D-09 XBig12= 9.68D+00 1.96D+00.
 AX will form    12 AO Fock derivatives at one time.
     12 vectors produced by pass  1 Test12= 7.00D-16 6.67D-09 XBig12= 6.60D-01 3.10D-01.
     12 vectors produced by pass  2 Test12= 7.00D-16 6.67D-09 XBig12= 2.69D-03 2.07D-02.
     12 vectors produced by pass  3 Test12= 7.00D-16 6.67D-09 XBig12= 2.19D-05 1.66D-03.
     12 vectors produced by pass  4 Test12= 7.00D-16 6.67D-09 XBig12= 1.65D-07 1.62D-04.
     10 vectors produced by pass  5 Test12= 7.00D-16 6.67D-09 XBig12= 3.84D-10 8.11D-06.
      1 vectors produced by pass  6 Test12= 7.00D-16 6.67D-09 XBig12= 1.02D-12 5.10D-07.
      1 vectors produced by pass  7 Test12= 7.00D-16 6.67D-09 XBig12= 1.94D-15 2.17D-08.
 InvSVY:  IOpt=1 It=  1 EMax= 6.66D-16
 Solved reduced A of dimension    72 with    12 vectors.
 FullF1:  Do perturbations    1 to     3.
 Isotropic polarizability for W=    0.000000       12.46 Bohr**3.
 End of Minotr F.D. properties file   721 does not exist.
 End of Minotr F.D. properties file   722 does not exist.
 End of Minotr F.D. properties file   788 does not exist.
 Leave Link 1002 at Fri Jul 15 09:20:51 2016, MaxMem=    33554432 cpu:         0.1
 (Enter /share/sw/non-free/gaussian/g09/l601.exe)
 Copying SCF densities to generalized density rwf, IOpCl= 0 IROHF=0.

 **********************************************************************

            Population analysis using the SCF density.

 **********************************************************************

 Alpha  occ. eigenvalues --  -11.18093 -11.17847  -1.03615  -0.75875  -0.68148
 Alpha  occ. eigenvalues --   -0.41219  -0.41219
 Alpha virt. eigenvalues --    0.22578   0.22578   0.28222   0.33195   0.68800
 Alpha virt. eigenvalues --    0.91680   0.95725   0.95725   1.09719   1.09719
 Alpha virt. eigenvalues --    1.25869   1.31731   1.54469   1.68638   2.30446
          Condensed to atoms (all electrons):
               1          2          3          4
     1  C    4.917896   0.351507   1.071491  -0.007294
     2  H    0.351507   0.321561  -0.007294   0.000627
     3  C    1.071491  -0.007294   4.917896   0.351507
     4  H   -0.007294   0.000627   0.351507   0.321561
 Mulliken charges:
               1
     1  C   -0.333599
     2  H    0.333599
     3  C   -0.333599
     4  H    0.333599
 Sum of Mulliken charges =   0.00000
 Mulliken charges with hydrogens summed into heavy atoms:
               1
     1  C    0.000000
     3  C    0.000000
 APT charges:
               1
     1  C   -0.239486
     2  H    0.239486
     3  C   -0.239486
     4  H    0.239486
 Sum of APT charges =   0.00000
 APT charges with hydrogens summed into heavy atoms:
               1
     1  C    0.000000
     3  C    0.000000
 Electronic spatial extent (au):  <R**2>=            234.5206
 Charge=              0.0000 electrons
 Dipole moment (field-independent basis, Debye):
    X=              0.0000    Y=              0.0000    Z=              0.0000  Tot=              0.0000
 Quadrupole moment (field-independent basis, Debye-Ang):
   XX=             -6.9545   YY=            -13.5620   ZZ=            -13.5620
   XY=              0.0000   XZ=              0.0000   YZ=              0.0000
 Traceless Quadrupole moment (field-independent basis, Debye-Ang):
   XX=              4.4050   YY=             -2.2025   ZZ=             -2.2025
   XY=              0.0000   XZ=              0.0000   YZ=              0.0000
 Octapole moment (field-independent basis, Debye-Ang**2):
  XXX=             39.0045  YYY=             -0.8105  ZZZ=              0.0000  XYY=             25.3544
  XXY=             -0.1385  XXZ=              0.0000  XZZ=             25.3544  YZZ=             -0.2702
  YYZ=              0.0000  XYZ=              0.0000
 Hexadecapole moment (field-independent basis, Debye-Ang**3):
 XXXX=           -180.0391 YYYY=            -14.1646 ZZZZ=            -14.1323 XXXY=              0.7770
 XXXZ=              0.0000 YYYX=              1.5152 YYYZ=              0.0000 ZZZX=              0.0000
 ZZZY=              0.0000 XXYY=            -58.9608 XXZZ=            -58.9581 YYZZ=             -4.7162
 XXYZ=              0.0000 YYXZ=              0.0000 ZZXY=              0.5051
 N-N= 2.508194025675D+01 E-N=-2.277648970745D+02  KE= 7.612943368894D+01
  Exact polarizability:  26.647   0.000   5.368   0.000   0.000   5.368
 Approx polarizability:  27.643   0.000   4.385   0.000   0.000   4.385
 No NMR shielding tensors so no spin-rotation constants.
 Leave Link  601 at Fri Jul 15 09:20:51 2016, MaxMem=    33554432 cpu:         0.1
 (Enter /share/sw/non-free/gaussian/g09/l701.exe)
 Compute integral second derivatives.
 ... and contract with generalized density number  0.
 Leave Link  701 at Fri Jul 15 09:20:51 2016, MaxMem=    33554432 cpu:         0.1
 (Enter /share/sw/non-free/gaussian/g09/l702.exe)
 L702 exits ... SP integral derivatives will be done elsewhere.
 Leave Link  702 at Fri Jul 15 09:20:51 2016, MaxMem=    33554432 cpu:         0.0
 (Enter /share/sw/non-free/gaussian/g09/l703.exe)
 Compute integral second derivatives, UseDBF=F ICtDFT=           0.
 Integral derivatives from FoFJK, PRISM(SPDF).
 Calling FoFJK, ICntrl=    100127 FMM=F ISym2X=0 I1Cent= 0 IOpClX= 0 NMat=1 NMatS=1 NMatT=0.
 FoFJK:  IHMeth= 1 ICntrl=  100127 DoSepK=F KAlg= 0 I1Cent=   0 FoldK=F
 IRaf=         0 NMat=   1 IRICut=       1 DoRegI=T DoRafI=F ISym2E= 0.
 FoFCou: FMM=F IPFlag=           0 FMFlag=      100000 FMFlg1=         800
         NFxFlg=           0 DoJE=F BraDBF=F KetDBF=F FulRan=T
         wScrn=  0.000000 ICntrl=  100127 IOpCl=  0 I1Cent=           0 NGrid=           0
         NMat0=    1 NMatS0=      1 NMatT0=    0 NMatD0=    1 NMtDS0=    0 NMtDT0=    0
 Symmetry not used in FoFCou.
 Leave Link  703 at Fri Jul 15 09:20:51 2016, MaxMem=    33554432 cpu:         0.1
 (Enter /share/sw/non-free/gaussian/g09/l716.exe)
 Dipole        =-1.63424829D-13-1.50674172D-07 1.50673893D-07
 Polarizability= 2.66470351D+01 1.62575692D-06 5.36752642D+00
                -1.62575120D-06-7.14609058D-13 5.36752642D+00
 HyperPolar    =-2.67331990D-12-5.69440164D-06-3.34459447D-10
                 1.96828841D-06 5.69438281D-06-2.05936500D-12
                -6.56094731D-07-3.34473750D-10 6.56096136D-07
                -1.96828419D-06
 Full mass-weighted force constant matrix:
 Low frequencies ---   -0.0007    0.0009    0.0009   10.7091   10.7091  901.5117
 Low frequencies ---  901.5117  917.6281  917.6281
 Diagonal vibrational polarizability:
        0.2066587       4.3531034       4.3531034
 Harmonic frequencies (cm**-1), IR intensities (KM/Mole), Raman scattering
 activities (A**4/AMU), depolarization ratios for plane and unpolarized
 incident light, reduced masses (AMU), force constants (mDyne/A),
 and normal coordinates:
                      1                      2                      3
                      A                      A                      A
 Frequencies --    901.5117               901.5117               917.6276
 Red. masses --      1.0848                 1.0848                 1.5720
 Frc consts  --      0.5195                 0.5195                 0.7799
 IR Inten    --    131.4645               131.4645                 0.0000
  Atom  AN      X      Y      Z        X      Y      Z        X      Y      Z
     1   6     0.00   0.04  -0.04     0.00  -0.04  -0.04     0.00   0.11  -0.11
     2   1     0.00  -0.47   0.53     0.00   0.53   0.47     0.00  -0.49   0.48
     3   6     0.00   0.04  -0.04     0.00  -0.04  -0.04     0.00  -0.11   0.11
     4   1     0.00  -0.47   0.53     0.00   0.53   0.47     0.00   0.49  -0.48
                      4                      5                      6
                      A                      A                      A
 Frequencies --    917.6276              2233.2720              3597.6077
 Red. masses --      1.5720                 3.6378                 1.0848
 Frc consts  --      0.7799                10.6898                 8.2724
 IR Inten    --      0.0000                 0.0000                99.3912
  Atom  AN      X      Y      Z        X      Y      Z        X      Y      Z
     1   6     0.00   0.11   0.11     0.35   0.00   0.00     0.06   0.00   0.00
     2   1     0.00  -0.48  -0.49     0.62   0.00   0.00    -0.70   0.00   0.00
     3   6     0.00  -0.11  -0.11    -0.35   0.00   0.00     0.06   0.00   0.00
     4   1     0.00   0.48   0.49    -0.62   0.00   0.00    -0.70   0.00   0.00
                      7
                      A
 Frequencies --   3720.6206
 Red. masses --      1.2489
 Frc consts  --     10.1865
 IR Inten    --      0.0000
  Atom  AN      X      Y      Z
     1   6    -0.10   0.00   0.00
     2   1     0.70   0.00   0.00
     3   6     0.10   0.00   0.00
     4   1    -0.70   0.00   0.00

 -------------------
 - Thermochemistry -
 -------------------
 Temperature   298.150 Kelvin.  Pressure   1.00000 Atm.
 Atom     1 has atomic number  6 and mass  12.00000
 Atom     2 has atomic number  1 and mass   1.00783
 Atom     3 has atomic number  6 and mass  12.00000
 Atom     4 has atomic number  1 and mass   1.00783
 Molecular mass:    26.01565 amu.
 Principal axes and moments of inertia in atomic units:
                           1         2         3
     Eigenvalues --     0.00000  49.68887  49.68887
           X            1.00000   0.00000   0.00000
           Y            0.00000  -0.69897   0.71515
           Z            0.00000   0.71515   0.69897
 This molecule is a prolate symmetric top.
 Rotational symmetry number  1.
 Rotational temperature (Kelvin)      1.74312
 Rotational constant (GHZ):          36.320832
 Zero-point vibrational energy      78892.4 (Joules/Mol)
                                   18.85574 (Kcal/Mol)
 Vibrational temperatures:   1297.07  1297.07  1320.26  1320.26  3213.18
          (Kelvin)           5176.15  5353.14
 
 Zero-point correction=                           0.030049 (Hartree/Particle)
 Thermal correction to Energy=                    0.032618
 Thermal correction to Enthalpy=                  0.033562
 Thermal correction to Gibbs Free Energy=         0.010542
 Sum of electronic and zero-point Energies=            -76.365908
 Sum of electronic and thermal Energies=               -76.363339
 Sum of electronic and thermal Enthalpies=             -76.362395
 Sum of electronic and thermal Free Energies=          -76.385414
 
                     E (Thermal)             CV                S
                      KCal/Mol        Cal/Mol-Kelvin    Cal/Mol-Kelvin
 Total                   20.468              6.922             48.448
 Electronic               0.000              0.000              0.000
 Translational            0.889              2.981             35.704
 Rotational               0.592              1.987             12.205
 Vibrational             18.987              1.954              0.538
                       Q            Log10(Q)             Ln(Q)
 Total Bot       0.141514D-04         -4.849201        -11.165699
 Total V=0       0.937848D+09          8.972132         20.659098
 Vib (Bot)       0.158630D-13        -13.799615        -31.774789
 Vib (V=0)       0.105128D+01          0.021718          0.050008
 Electronic      0.100000D+01          0.000000          0.000000
 Translational   0.521564D+07          6.717307         15.467172
 Rotational      0.171044D+03          2.233107          5.141918
 
                                                         Title Card Required
                                                             IR Spectrum
 
     3    3                                             2                                                                            
     7    5                                             2                                            99                              
     2    9                                             3                                            10                              
     1    8                                             3                                            82                              
 
          X                                                                                           X                              
          X                                                                                           X                              
          X                                                                                           X                              
          X                                                                                           X                              
          X                                                                                           X                              
          X                                                                                           X                              
          X                                                                                           X                              
          X                                                                                           X                              
                                                                                                      X                              
                                                                                                      X                              
                                                                                                      X                              
                                                                                                      X                              
                                                                                                      X                              
                                                                                                      X                              
                                                                                                      X                              
                                                                                                      X                              
                                                                                                      X                              
                                                                                                      X                              
                                                                                                      X                              
                                                                                                      X                              
 
 -------------------------------------------------------------------
 Center     Atomic                   Forces (Hartrees/Bohr)
 Number     Number              X              Y              Z
 -------------------------------------------------------------------
      1        6           0.000430697    0.000000008   -0.000000008
      2        1          -0.000120525    0.000000003   -0.000000003
      3        6          -0.000430697   -0.000000025    0.000000025
      4        1           0.000120525    0.000000015   -0.000000015
 -------------------------------------------------------------------
 Cartesian Forces:  Max     0.000430697 RMS     0.000182586
 Force constants in Cartesian coordinates: 
                1             2             3             4             5 
      1  0.178394D+01
      2  0.000000D+00  0.894223D-01
      3  0.000000D+00  0.000000D+00  0.894223D-01
      4 -0.465354D+00  0.000000D+00  0.000000D+00  0.456086D+00
      5  0.000000D+00 -0.413546D-01  0.000000D+00  0.000000D+00  0.240481D-01
      6  0.000000D+00  0.000000D+00 -0.413546D-01  0.000000D+00  0.000000D+00
      7 -0.132856D+01  0.000000D+00  0.000000D+00  0.996670D-02  0.000000D+00
      8  0.000000D+00 -0.608269D-01  0.000000D+00  0.000000D+00  0.127592D-01
      9  0.000000D+00  0.000000D+00 -0.608269D-01  0.000000D+00  0.000000D+00
     10  0.996670D-02  0.000000D+00  0.000000D+00 -0.698715D-03  0.000000D+00
     11  0.000000D+00  0.127592D-01  0.000000D+00  0.000000D+00  0.454730D-02
     12  0.000000D+00  0.000000D+00  0.127592D-01  0.000000D+00  0.000000D+00
                6             7             8             9            10 
      6  0.240481D-01
      7  0.000000D+00  0.178394D+01
      8  0.000000D+00  0.000000D+00  0.894223D-01
      9  0.127592D-01  0.000000D+00  0.000000D+00  0.894223D-01
     10  0.000000D+00 -0.465354D+00  0.000000D+00  0.000000D+00  0.456086D+00
     11  0.000000D+00  0.000000D+00 -0.413546D-01  0.000000D+00  0.000000D+00
     12  0.454730D-02  0.000000D+00  0.000000D+00 -0.413546D-01  0.000000D+00
               11            12 
     11  0.240481D-01
     12  0.000000D+00  0.240481D-01
 FormGI is forming the generalized inverse of G from B-inverse, IUseBI=4.
 Force constants in internal coordinates: 
                1             2             3             4             5 
      1  0.456086D+00
      2 -0.926798D-02  0.130932D+01
      3  0.698715D-03 -0.926798D-02  0.456086D+00
      4  0.000000D+00  0.000000D+00  0.000000D+00  0.950508D-01
      5  0.000000D+00  0.000000D+00  0.000000D+00  0.179281D-01  0.950508D-01
      6  0.000000D+00  0.000000D+00  0.000000D+00  0.000000D+00  0.000000D+00
      7  0.000000D+00  0.000000D+00  0.000000D+00  0.000000D+00  0.000000D+00
                6             7 
      6  0.950508D-01
      7  0.179281D-01  0.950508D-01
 Leave Link  716 at Fri Jul 15 09:20:51 2016, MaxMem=    33554432 cpu:         0.0
 (Enter /share/sw/non-free/gaussian/g09/l103.exe)

 GradGradGradGradGradGradGradGradGradGradGradGradGradGradGradGradGradGrad
 Berny optimization.
 Red2BG is reusing G-inverse.
 Internal  Forces:  Max     0.000310172 RMS     0.000133769
 Search for a local minimum.
 Step number   1 out of a maximum of    2
 All quantities printed in internal units (Hartrees-Bohrs-Radians)
 Second derivative matrix not updated -- analytic derivatives used.
 The second derivative matrix:
                          R1        R2        R3        A1        A2
           R1           0.45609
           R2          -0.00927   1.30932
           R3           0.00070  -0.00927   0.45609
           A1           0.00000   0.00000   0.00000   0.09505
           A2           0.00000   0.00000   0.00000   0.01793   0.09505
           A3           0.00000   0.00000   0.00000   0.00000   0.00000
           A4           0.00000   0.00000   0.00000   0.00000   0.00000
                          A3        A4
           A3           0.09505
           A4           0.01793   0.09505
 ITU=  0
     Eigenvalues ---    0.07712   0.07712   0.11298   0.11298   0.45539
     Eigenvalues ---    0.45658   1.30952
 Angle between quadratic step and forces=  28.74 degrees.
 Linear search not attempted -- first point.
 Iteration  1 RMS(Cart)=  0.00009843 RMS(Int)=  0.00000000
 SLEqS3 Cycle:   121 Max:0.108517E-10 RMS:0.685376E-11 Conv:0.421258E-14
 Iteration  2 RMS(Cart)=  0.00000000 RMS(Int)=  0.00000000
 ITry= 1 IFail=0 DXMaxC= 1.43D-04 DCOld= 1.00D+10 DXMaxT= 3.00D-01 DXLimC= 3.00D+00 Rises=F
 Variable       Old X    -DE/DX   Delta X   Delta X   Delta X     New X
                                 (Linear)    (Quad)   (Total)
    R1        1.98559   0.00012   0.00000   0.00026   0.00026   1.98585
    R2        2.24431  -0.00031   0.00000  -0.00023  -0.00023   2.24408
    R3        1.98559   0.00012   0.00000   0.00026   0.00026   1.98585
    A1        3.14159   0.00000   0.00000   0.00000   0.00000   3.14159
    A2        3.14159   0.00000   0.00000   0.00000   0.00000   3.14159
    A3        3.14159   0.00000   0.00000   0.00000   0.00000   3.14159
    A4        3.14159   0.00000   0.00000   0.00000   0.00000   3.14159
         Item               Value     Threshold  Converged?
 Maximum Force            0.000310     0.000450     YES
 RMS     Force            0.000134     0.000300     YES
 Maximum Displacement     0.000143     0.001800     YES
 RMS     Displacement     0.000098     0.001200     YES
 Predicted change in Energy=-6.740088D-08
 Optimization completed.
    -- Stationary point found.
                           ----------------------------
                           !   Optimized Parameters   !
                           ! (Angstroms and Degrees)  !
 --------------------------                            --------------------------
 ! Name  Definition              Value          Derivative Info.                !
 --------------------------------------------------------------------------------
 ! R1    R(1,2)                  1.0507         -DE/DX =    0.0001              !
 ! R2    R(1,3)                  1.1876         -DE/DX =   -0.0003              !
 ! R3    R(3,4)                  1.0507         -DE/DX =    0.0001              !
 ! A1    L(2,1,3,-2,-1)        180.0            -DE/DX =    0.0                 !
 ! A2    L(1,3,4,-2,-1)        180.0            -DE/DX =    0.0                 !
 ! A3    L(2,1,3,-3,-2)        180.0            -DE/DX =    0.0                 !
 ! A4    L(1,3,4,-3,-2)        180.0            -DE/DX =    0.0                 !
 --------------------------------------------------------------------------------
 GradGradGradGradGradGradGradGradGradGradGradGradGradGradGradGradGradGrad

 Leave Link  103 at Fri Jul 15 09:20:51 2016, MaxMem=    33554432 cpu:         0.0
 (Enter /share/sw/non-free/gaussian/g09/l9999.exe)
 1\1\GINC-SHERLOCK-LN04\Freq\RHF\3-21G\C2H2\EKWAN16\15-Jul-2016\0\\#P G
 eom=AllCheck Guess=TCheck SCRF=Check GenChk RHF/3-21G Freq\\Title Card
  Required\\0,1\C,-2.4633379101,0.0199203473,-0.0000000273\H,-3.5140687
 017,0.0199202593,0.0000000607\C,-1.2757008699,0.0199204519,-0.00000013
 19\H,-0.2249700783,0.0199202215,0.0000000985\\Version=ES64L-G09RevD.01
 \HF=-76.3959569\RMSD=0.000e+00\RMSF=1.826e-04\ZeroPoint=0.0300485\Ther
 mal=0.0326176\Dipole=0.,-0.0000002,0.0000002\DipoleDeriv=-0.2177029,0.
 ,0.,0.,-0.2503771,0.,0.,0.,-0.2503771,0.2177029,0.,0.,0.,0.2503771,0.,
 0.,0.,0.2503771,-0.2177029,0.,0.,-0.0000001,-0.2503771,0.,0.0000001,0.
 ,-0.2503771,0.2177029,0.,0.,0.,0.2503771,0.,0.,0.,0.2503771\Polar=26.6
 470351,0.0000016,5.3675264,-0.0000016,0.,5.3675264\HyperPolar=0.,-0.00
 00057,0.,0.000002,0.0000057,0.,-0.0000007,0.,0.0000007,-0.000002\PG=C*
 V [C*(H1C1C1H1)]\NImag=0\\1.78394444,0.00000012,0.08942229,-0.00000012
 ,0.,0.08942229,-0.46535383,-0.00000003,0.00000003,0.45608584,-0.000000
 03,-0.04135460,0.,0.00000003,0.02404809,0.00000003,0.,-0.04135460,-0.0
 0000003,0.,0.02404809,-1.32855731,-0.00000009,0.00000009,0.00996670,0.
 ,0.,1.78394444,-0.00000007,-0.06082690,0.,0.,0.01275922,0.,0.,0.089422
 29,0.00000007,0.,-0.06082690,0.,0.,0.01275922,0.,0.,0.08942229,0.00996
 670,0.,0.,-0.00069871,0.,0.,-0.46535383,0.00000008,-0.00000008,0.45608
 584,-0.00000002,0.01275922,0.,0.,0.00454730,0.,0.00000010,-0.04135460,
 0.,-0.00000008,0.02404809,0.00000002,0.,0.01275922,0.,0.,0.00454730,-0
 .00000010,0.,-0.04135460,0.00000008,0.,0.02404809\\-0.00043070,0.,0.,0
 .00012052,0.,0.,0.00043070,0.00000003,-0.00000003,-0.00012052,-0.00000
 001,0.00000001\\\@


 THE LENGTH OF A MEETING IS PROPORTIONAL TO THE
 SQUARE OF THE PARTICIPANTS.
 Job cpu time:       0 days  0 hours  0 minutes  1.2 seconds.
 File lengths (MBytes):  RWF=      5 Int=      0 D2E=      0 Chk=      1 Scr=      1
 Normal termination of Gaussian 09 at Fri Jul 15 09:20:51 2016.
