 Entering Gaussian System, Link 0=g09
 Input=co2.gjf
 Output=co2.out
 Initial command:
 /share/sw/non-free/gaussian/g09/l1.exe "/scratch/users/ekwan16/numfreq/Gau-8748.inp" -scrdir="/scratch/users/ekwan16/numfreq/"
 Entering Link 1 = /share/sw/non-free/gaussian/g09/l1.exe PID=      8749.
  
 Copyright (c) 1988,1990,1992,1993,1995,1998,2003,2009,2013,
            Gaussian, Inc.  All Rights Reserved.
  
 This is part of the Gaussian(R) 09 program.  It is based on
 the Gaussian(R) 03 system (copyright 2003, Gaussian, Inc.),
 the Gaussian(R) 98 system (copyright 1998, Gaussian, Inc.),
 the Gaussian(R) 94 system (copyright 1995, Gaussian, Inc.),
 the Gaussian 92(TM) system (copyright 1992, Gaussian, Inc.),
 the Gaussian 90(TM) system (copyright 1990, Gaussian, Inc.),
 the Gaussian 88(TM) system (copyright 1988, Gaussian, Inc.),
 the Gaussian 86(TM) system (copyright 1986, Carnegie Mellon
 University), and the Gaussian 82(TM) system (copyright 1983,
 Carnegie Mellon University). Gaussian is a federally registered
 trademark of Gaussian, Inc.
  
 This software contains proprietary and confidential information,
 including trade secrets, belonging to Gaussian, Inc.
  
 This software is provided under written license and may be
 used, copied, transmitted, or stored only in accord with that
 written license.
  
 The following legend is applicable only to US Government
 contracts under FAR:
  
                    RESTRICTED RIGHTS LEGEND
  
 Use, reproduction and disclosure by the US Government is
 subject to restrictions as set forth in subparagraphs (a)
 and (c) of the Commercial Computer Software - Restricted
 Rights clause in FAR 52.227-19.
  
 Gaussian, Inc.
 340 Quinnipiac St., Bldg. 40, Wallingford CT 06492
  
  
 ---------------------------------------------------------------
 Warning -- This program may not be used in any manner that
 competes with the business of Gaussian, Inc. or will provide
 assistance to any competitor of Gaussian, Inc.  The licensee
 of this program is prohibited from giving any competitor of
 Gaussian, Inc. access to this program.  By using this program,
 the user acknowledges that Gaussian, Inc. is engaged in the
 business of creating and licensing software in the field of
 computational chemistry and represents and warrants to the
 licensee that it is not a competitor of Gaussian, Inc. and that
 it will not use this program in any manner prohibited above.
 ---------------------------------------------------------------
  

 Cite this work as:
 Gaussian 09, Revision D.01,
 M. J. Frisch, G. W. Trucks, H. B. Schlegel, G. E. Scuseria, 
 M. A. Robb, J. R. Cheeseman, G. Scalmani, V. Barone, B. Mennucci, 
 G. A. Petersson, H. Nakatsuji, M. Caricato, X. Li, H. P. Hratchian, 
 A. F. Izmaylov, J. Bloino, G. Zheng, J. L. Sonnenberg, M. Hada, 
 M. Ehara, K. Toyota, R. Fukuda, J. Hasegawa, M. Ishida, T. Nakajima, 
 Y. Honda, O. Kitao, H. Nakai, T. Vreven, J. A. Montgomery, Jr., 
 J. E. Peralta, F. Ogliaro, M. Bearpark, J. J. Heyd, E. Brothers, 
 K. N. Kudin, V. N. Staroverov, T. Keith, R. Kobayashi, J. Normand, 
 K. Raghavachari, A. Rendell, J. C. Burant, S. S. Iyengar, J. Tomasi, 
 M. Cossi, N. Rega, J. M. Millam, M. Klene, J. E. Knox, J. B. Cross, 
 V. Bakken, C. Adamo, J. Jaramillo, R. Gomperts, R. E. Stratmann, 
 O. Yazyev, A. J. Austin, R. Cammi, C. Pomelli, J. W. Ochterski, 
 R. L. Martin, K. Morokuma, V. G. Zakrzewski, G. A. Voth, 
 P. Salvador, J. J. Dannenberg, S. Dapprich, A. D. Daniels, 
 O. Farkas, J. B. Foresman, J. V. Ortiz, J. Cioslowski, 
 and D. J. Fox, Gaussian, Inc., Wallingford CT, 2013.
 
 ******************************************
 Gaussian 09:  ES64L-G09RevD.01 24-Apr-2013
                14-Jul-2016 
 ******************************************
 -----------------------------------------------------------
 #p hf/6-31g* geom=connectivity opt freq=noraman iop(7/33=1)
 -----------------------------------------------------------
 1/18=20,19=15,38=1,57=2/1,3;
 2/9=110,12=2,17=6,18=5,40=1/2;
 3/5=1,6=6,7=1,11=9,16=1,25=1,30=1,71=1/1,2,3;
 4//1;
 5/5=2,38=5/2;
 6/7=2,8=2,9=2,10=2,28=1/1;
 7/33=1/1,2,3,16;
 1/18=20,19=15/3(2);
 2/9=110/2;
 99//99;
 2/9=110/2;
 3/5=1,6=6,7=1,11=9,16=1,25=1,30=1,71=1/1,2,3;
 4/5=5,16=3,69=1/1;
 5/5=2,38=5/2;
 7/33=1/1,2,3,16;
 1/18=20,19=15/3(-5);
 2/9=110/2;
 6/7=2,8=2,9=2,10=2,19=2,28=1/1;
 99/9=1/99;
 Leave Link    1 at Thu Jul 14 15:56:00 2016, MaxMem=           0 cpu:         0.0
 (Enter /share/sw/non-free/gaussian/g09/l101.exe)
 -------------------
 Title Card Required
 -------------------
 Symbolic Z-matrix:
 Charge =  0 Multiplicity = 1
 C                    -0.91633   0.07304   0. 
 O                     0.34207   0.07304   0. 
 O                    -2.17473   0.07304   0. 
 
 NAtoms=      3 NQM=        3 NQMF=       0 NMMI=      0 NMMIF=      0
                NMic=       0 NMicF=      0.
                    Isotopes and Nuclear Properties:
 (Nuclear quadrupole moments (NQMom) in fm**2, nuclear magnetic moments (NMagM)
  in nuclear magnetons)

  Atom         1           2           3
 IAtWgt=          12          16          16
 AtmWgt=  12.0000000  15.9949146  15.9949146
 NucSpn=           0           0           0
 AtZEff=   0.0000000   0.0000000   0.0000000
 NQMom=    0.0000000   0.0000000   0.0000000
 NMagM=    0.0000000   0.0000000   0.0000000
 AtZNuc=   6.0000000   8.0000000   8.0000000
 Leave Link  101 at Thu Jul 14 15:56:00 2016, MaxMem=    33554432 cpu:         0.1
 (Enter /share/sw/non-free/gaussian/g09/l103.exe)

 GradGradGradGradGradGradGradGradGradGradGradGradGradGradGradGradGradGrad
 Berny optimization.
 Initialization pass.
                           ----------------------------
                           !    Initial Parameters    !
                           ! (Angstroms and Degrees)  !
 --------------------------                            --------------------------
 ! Name  Definition              Value          Derivative Info.                !
 --------------------------------------------------------------------------------
 ! R1    R(1,2)                  1.2584         estimate D2E/DX2                !
 ! R2    R(1,3)                  1.2584         estimate D2E/DX2                !
 ! A1    L(2,1,3,-2,-1)        180.0            estimate D2E/DX2                !
 ! A2    L(2,1,3,-3,-2)        180.0            estimate D2E/DX2                !
 --------------------------------------------------------------------------------
 Trust Radius=3.00D-01 FncErr=1.00D-07 GrdErr=1.00D-07
 Number of steps in this run=     20 maximum allowed number of steps=    100.
 GradGradGradGradGradGradGradGradGradGradGradGradGradGradGradGradGradGrad

 Leave Link  103 at Thu Jul 14 15:56:00 2016, MaxMem=    33554432 cpu:         0.0
 (Enter /share/sw/non-free/gaussian/g09/l202.exe)
                          Input orientation:                          
 ---------------------------------------------------------------------
 Center     Atomic      Atomic             Coordinates (Angstroms)
 Number     Number       Type             X           Y           Z
 ---------------------------------------------------------------------
      1          6           0       -0.916335    0.073041    0.000000
      2          8           0        0.342065    0.073041    0.000000
      3          8           0       -2.174735    0.073041    0.000000
 ---------------------------------------------------------------------
                    Distance matrix (angstroms):
                    1          2          3
     1  C    0.000000
     2  O    1.258400   0.000000
     3  O    1.258400   2.516800   0.000000
 Stoichiometry    CO2
 Framework group  D*H[O(C),C*(O.O)]
 Deg. of freedom     1
 Full point group                 D*H     NOp   8
 Largest Abelian subgroup         D2H     NOp   8
 Largest concise Abelian subgroup C2      NOp   2
                         Standard orientation:                         
 ---------------------------------------------------------------------
 Center     Atomic      Atomic             Coordinates (Angstroms)
 Number     Number       Type             X           Y           Z
 ---------------------------------------------------------------------
      1          6           0        0.000000    0.000000    0.000000
      2          8           0        0.000000    0.000000    1.258400
      3          8           0        0.000000    0.000000   -1.258400
 ---------------------------------------------------------------------
 Rotational constants (GHZ):      0.0000000      9.9762622      9.9762622
 Leave Link  202 at Thu Jul 14 15:56:00 2016, MaxMem=    33554432 cpu:         0.0
 (Enter /share/sw/non-free/gaussian/g09/l301.exe)
 Standard basis: 6-31G(d) (6D, 7F)
 Ernie: Thresh=  0.10000D-02 Tol=  0.10000D-05 Strict=F.
 There are    14 symmetry adapted cartesian basis functions of AG  symmetry.
 There are     2 symmetry adapted cartesian basis functions of B1G symmetry.
 There are     4 symmetry adapted cartesian basis functions of B2G symmetry.
 There are     4 symmetry adapted cartesian basis functions of B3G symmetry.
 There are     1 symmetry adapted cartesian basis functions of AU  symmetry.
 There are    10 symmetry adapted cartesian basis functions of B1U symmetry.
 There are     5 symmetry adapted cartesian basis functions of B2U symmetry.
 There are     5 symmetry adapted cartesian basis functions of B3U symmetry.
 There are    14 symmetry adapted basis functions of AG  symmetry.
 There are     2 symmetry adapted basis functions of B1G symmetry.
 There are     4 symmetry adapted basis functions of B2G symmetry.
 There are     4 symmetry adapted basis functions of B3G symmetry.
 There are     1 symmetry adapted basis functions of AU  symmetry.
 There are    10 symmetry adapted basis functions of B1U symmetry.
 There are     5 symmetry adapted basis functions of B2U symmetry.
 There are     5 symmetry adapted basis functions of B3U symmetry.
    45 basis functions,    84 primitive gaussians,    45 cartesian basis functions
    11 alpha electrons       11 beta electrons
       nuclear repulsion energy        53.8260352031 Hartrees.
 IExCor=    0 DFT=F Ex=HF Corr=None ExCW=0 ScaHFX=  1.000000
 ScaDFX=  1.000000  1.000000  1.000000  1.000000 ScalE2=  1.000000  1.000000
 IRadAn=      0 IRanWt=     -1 IRanGd=            0 ICorTp=0 IEmpDi=  4
 NAtoms=    3 NActive=    3 NUniq=    2 SFac= 2.25D+00 NAtFMM=   60 NAOKFM=F Big=F
 Integral buffers will be    131072 words long.
 Raffenetti 1 integral format.
 Two-electron integral symmetry is turned on.
 Leave Link  301 at Thu Jul 14 15:56:00 2016, MaxMem=    33554432 cpu:         0.0
 (Enter /share/sw/non-free/gaussian/g09/l302.exe)
 NPDir=0 NMtPBC=     1 NCelOv=     1 NCel=       1 NClECP=     1 NCelD=      1
         NCelK=      1 NCelE2=     1 NClLst=     1 CellRange=     0.0.
 One-electron integrals computed using PRISM.
 One-electron integral symmetry used in STVInt
 NBasis=    45 RedAO= T EigKep=  4.90D-03  NBF=    14     2     4     4     1    10     5     5
 NBsUse=    45 1.00D-06 EigRej= -1.00D+00 NBFU=    14     2     4     4     1    10     5     5
 Leave Link  302 at Thu Jul 14 15:56:00 2016, MaxMem=    33554432 cpu:         0.1
 (Enter /share/sw/non-free/gaussian/g09/l303.exe)
 DipDrv:  MaxL=1.
 Leave Link  303 at Thu Jul 14 15:56:00 2016, MaxMem=    33554432 cpu:         0.0
 (Enter /share/sw/non-free/gaussian/g09/l401.exe)
 ExpMin= 1.69D-01 ExpMax= 5.48D+03 ExpMxC= 8.25D+02 IAcc=1 IRadAn=         1 AccDes= 0.00D+00
 Harris functional with IExCor=  205 and IRadAn=       1 diagonalized for initial guess.
 HarFok:  IExCor=  205 AccDes= 0.00D+00 IRadAn=         1 IDoV= 1 UseB2=F ITyADJ=14
 ICtDFT=  3500011 ScaDFX=  1.000000  1.000000  1.000000  1.000000
 FoFCou: FMM=F IPFlag=           0 FMFlag=      100000 FMFlg1=           0
         NFxFlg=           0 DoJE=T BraDBF=F KetDBF=T FulRan=T
         wScrn=  0.000000 ICntrl=     500 IOpCl=  0 I1Cent=   200000004 NGrid=           0
         NMat0=    1 NMatS0=      1 NMatT0=    0 NMatD0=    1 NMtDS0=    0 NMtDT0=    0
 Petite list used in FoFCou.
 Harris En= -187.619463792763    
 JPrj=0 DoOrth=F DoCkMO=F.
 Initial guess orbital symmetries:
       Occupied  (SGU) (SGG) (SGG) (SGG) (SGU) (SGG) (SGU) (PIU)
                 (PIU) (PIG) (PIG)
       Virtual   (PIU) (PIU) (SGG) (SGU) (PIU) (PIU) (SGG) (SGU)
                 (SGG) (PIG) (PIG) (SGU) (PIU) (PIU) (SGG) (PIG)
                 (PIG) (DLTG) (DLTG) (DLTU) (DLTU) (SGU) (DLTG)
                 (DLTG) (PIU) (PIU) (SGG) (SGU) (PIG) (PIG) (SGG)
                 (SGG) (SGG) (SGU)
 The electronic state of the initial guess is 1-SGG.
 Leave Link  401 at Thu Jul 14 15:56:00 2016, MaxMem=    33554432 cpu:         0.1
 (Enter /share/sw/non-free/gaussian/g09/l502.exe)
 Closed shell SCF:
 Using DIIS extrapolation, IDIIS=  1040.
 Integral symmetry usage will be decided dynamically.
 Keep R1 ints in memory in symmetry-blocked form, NReq=1397936.
 IVT=       25385 IEndB=       25385 NGot=    33554432 MDV=    33448410
 LenX=    33448410 LenY=    33445944
 Requested convergence on RMS density matrix=1.00D-08 within 128 cycles.
 Requested convergence on MAX density matrix=1.00D-06.
 Requested convergence on             energy=1.00D-06.
 No special actions if energy rises.
 FoFCou: FMM=F IPFlag=           0 FMFlag=           0 FMFlg1=           0
         NFxFlg=           0 DoJE=F BraDBF=F KetDBF=F FulRan=T
         wScrn=  0.000000 ICntrl=     600 IOpCl=  0 I1Cent=           0 NGrid=           0
         NMat0=    1 NMatS0=   1035 NMatT0=    0 NMatD0=    1 NMtDS0=    0 NMtDT0=    0
 Petite list used in FoFCou.

 Cycle   1  Pass 1  IDiag  1:
 E= -187.505271499831    
 DIIS: error= 6.49D-02 at cycle   1 NSaved=   1.
 NSaved= 1 IEnMin= 1 EnMin= -187.505271499831     IErMin= 1 ErrMin= 6.49D-02
 ErrMax= 6.49D-02  0.00D+00 EMaxC= 1.00D-01 BMatC= 1.98D-01 BMatP= 1.98D-01
 IDIUse=3 WtCom= 3.51D-01 WtEn= 6.49D-01
 Coeff-Com:  0.100D+01
 Coeff-En:   0.100D+01
 Coeff:      0.100D+01
 Gap=     0.614 Goal=   None    Shift=    0.000
 GapD=    0.614 DampG=2.000 DampE=0.500 DampFc=1.0000 IDamp=-1.
 RMSDP=6.36D-03 MaxDP=7.28D-02              OVMax= 7.73D-02

 Cycle   2  Pass 1  IDiag  1:
 E= -187.546927414824     Delta-E=       -0.041655914993 Rises=F Damp=F
 DIIS: error= 3.60D-02 at cycle   2 NSaved=   2.
 NSaved= 2 IEnMin= 2 EnMin= -187.546927414824     IErMin= 2 ErrMin= 3.60D-02
 ErrMax= 3.60D-02  0.00D+00 EMaxC= 1.00D-01 BMatC= 4.86D-02 BMatP= 1.98D-01
 IDIUse=3 WtCom= 6.40D-01 WtEn= 3.60D-01
 Coeff-Com:  0.279D+00 0.721D+00
 Coeff-En:   0.206D+00 0.794D+00
 Coeff:      0.253D+00 0.747D+00
 Gap=     0.693 Goal=   None    Shift=    0.000
 RMSDP=3.73D-03 MaxDP=3.86D-02 DE=-4.17D-02 OVMax= 7.48D-02

 Cycle   3  Pass 1  IDiag  1:
 E= -187.577363830503     Delta-E=       -0.030436415679 Rises=F Damp=F
 DIIS: error= 1.43D-02 at cycle   3 NSaved=   3.
 NSaved= 3 IEnMin= 3 EnMin= -187.577363830503     IErMin= 3 ErrMin= 1.43D-02
 ErrMax= 1.43D-02  0.00D+00 EMaxC= 1.00D-01 BMatC= 8.25D-03 BMatP= 4.86D-02
 IDIUse=3 WtCom= 8.57D-01 WtEn= 1.43D-01
 Coeff-Com: -0.399D-01 0.267D+00 0.773D+00
 Coeff-En:   0.000D+00 0.753D-02 0.992D+00
 Coeff:     -0.342D-01 0.230D+00 0.804D+00
 Gap=     0.673 Goal=   None    Shift=    0.000
 RMSDP=1.13D-03 MaxDP=1.65D-02 DE=-3.04D-02 OVMax= 1.66D-02

 Cycle   4  Pass 1  IDiag  1:
 E= -187.582992713915     Delta-E=       -0.005628883412 Rises=F Damp=F
 DIIS: error= 2.19D-03 at cycle   4 NSaved=   4.
 NSaved= 4 IEnMin= 4 EnMin= -187.582992713915     IErMin= 4 ErrMin= 2.19D-03
 ErrMax= 2.19D-03  0.00D+00 EMaxC= 1.00D-01 BMatC= 8.11D-05 BMatP= 8.25D-03
 IDIUse=3 WtCom= 9.78D-01 WtEn= 2.19D-02
 Coeff-Com:  0.858D-02-0.978D-01-0.165D+00 0.125D+01
 Coeff-En:   0.000D+00 0.000D+00 0.000D+00 0.100D+01
 Coeff:      0.839D-02-0.956D-01-0.162D+00 0.125D+01
 Gap=     0.678 Goal=   None    Shift=    0.000
 RMSDP=2.21D-04 MaxDP=2.78D-03 DE=-5.63D-03 OVMax= 5.23D-03

 Cycle   5  Pass 1  IDiag  1:
 E= -187.583124261249     Delta-E=       -0.000131547333 Rises=F Damp=F
 DIIS: error= 5.45D-04 at cycle   5 NSaved=   5.
 NSaved= 5 IEnMin= 5 EnMin= -187.583124261249     IErMin= 5 ErrMin= 5.45D-04
 ErrMax= 5.45D-04  0.00D+00 EMaxC= 1.00D-01 BMatC= 4.80D-06 BMatP= 8.11D-05
 IDIUse=3 WtCom= 9.95D-01 WtEn= 5.45D-03
 Coeff-Com:  0.178D-02-0.965D-02-0.525D-01-0.102D+00 0.116D+01
 Coeff-En:   0.000D+00 0.000D+00 0.000D+00 0.000D+00 0.100D+01
 Coeff:      0.177D-02-0.960D-02-0.523D-01-0.102D+00 0.116D+01
 Gap=     0.677 Goal=   None    Shift=    0.000
 RMSDP=7.61D-05 MaxDP=1.04D-03 DE=-1.32D-04 OVMax= 1.33D-03

 Cycle   6  Pass 1  IDiag  1:
 E= -187.583133226826     Delta-E=       -0.000008965578 Rises=F Damp=F
 DIIS: error= 7.79D-05 at cycle   6 NSaved=   6.
 NSaved= 6 IEnMin= 6 EnMin= -187.583133226826     IErMin= 6 ErrMin= 7.79D-05
 ErrMax= 7.79D-05  0.00D+00 EMaxC= 1.00D-01 BMatC= 2.32D-07 BMatP= 4.80D-06
 IDIUse=1 WtCom= 1.00D+00 WtEn= 0.00D+00
 Coeff-Com: -0.115D-02 0.124D-01 0.272D-01-0.107D+00-0.200D+00 0.127D+01
 Coeff:     -0.115D-02 0.124D-01 0.272D-01-0.107D+00-0.200D+00 0.127D+01
 Gap=     0.677 Goal=   None    Shift=    0.000
 RMSDP=2.19D-05 MaxDP=2.38D-04 DE=-8.97D-06 OVMax= 4.00D-04

 Cycle   7  Pass 1  IDiag  1:
 E= -187.583133780668     Delta-E=       -0.000000553841 Rises=F Damp=F
 DIIS: error= 1.09D-05 at cycle   7 NSaved=   7.
 NSaved= 7 IEnMin= 7 EnMin= -187.583133780668     IErMin= 7 ErrMin= 1.09D-05
 ErrMax= 1.09D-05  0.00D+00 EMaxC= 1.00D-01 BMatC= 3.65D-09 BMatP= 2.32D-07
 IDIUse=1 WtCom= 1.00D+00 WtEn= 0.00D+00
 Coeff-Com:  0.148D-03-0.190D-02-0.338D-02 0.219D-01 0.754D-02-0.239D+00
 Coeff-Com:  0.121D+01
 Coeff:      0.148D-03-0.190D-02-0.338D-02 0.219D-01 0.754D-02-0.239D+00
 Coeff:      0.121D+01
 Gap=     0.677 Goal=   None    Shift=    0.000
 RMSDP=2.53D-06 MaxDP=2.56D-05 DE=-5.54D-07 OVMax= 4.38D-05

 Cycle   8  Pass 1  IDiag  1:
 E= -187.583133786919     Delta-E=       -0.000000006252 Rises=F Damp=F
 DIIS: error= 1.00D-06 at cycle   8 NSaved=   8.
 NSaved= 8 IEnMin= 8 EnMin= -187.583133786919     IErMin= 8 ErrMin= 1.00D-06
 ErrMax= 1.00D-06  0.00D+00 EMaxC= 1.00D-01 BMatC= 4.76D-11 BMatP= 3.65D-09
 IDIUse=1 WtCom= 1.00D+00 WtEn= 0.00D+00
 Coeff-Com: -0.410D-05 0.626D-04 0.688D-04-0.137D-02 0.201D-02 0.859D-02
 Coeff-Com: -0.126D+00 0.112D+01
 Coeff:     -0.410D-05 0.626D-04 0.688D-04-0.137D-02 0.201D-02 0.859D-02
 Coeff:     -0.126D+00 0.112D+01
 Gap=     0.677 Goal=   None    Shift=    0.000
 RMSDP=2.06D-07 MaxDP=2.07D-06 DE=-6.25D-09 OVMax= 3.59D-06

 Cycle   9  Pass 1  IDiag  1:
 E= -187.583133786989     Delta-E=       -0.000000000069 Rises=F Damp=F
 DIIS: error= 1.88D-07 at cycle   9 NSaved=   9.
 NSaved= 9 IEnMin= 9 EnMin= -187.583133786989     IErMin= 9 ErrMin= 1.88D-07
 ErrMax= 1.88D-07  0.00D+00 EMaxC= 1.00D-01 BMatC= 8.19D-13 BMatP= 4.76D-11
 IDIUse=1 WtCom= 1.00D+00 WtEn= 0.00D+00
 Coeff-Com: -0.728D-06 0.806D-05 0.176D-04-0.711D-04-0.207D-03 0.190D-02
 Coeff-Com: -0.790D-02-0.119D+00 0.113D+01
 Coeff:     -0.728D-06 0.806D-05 0.176D-04-0.711D-04-0.207D-03 0.190D-02
 Coeff:     -0.790D-02-0.119D+00 0.113D+01
 Gap=     0.677 Goal=   None    Shift=    0.000
 RMSDP=3.00D-08 MaxDP=2.57D-07 DE=-6.94D-11 OVMax= 5.62D-07

 Cycle  10  Pass 1  IDiag  1:
 E= -187.583133786990     Delta-E=       -0.000000000002 Rises=F Damp=F
 DIIS: error= 2.38D-08 at cycle  10 NSaved=  10.
 NSaved=10 IEnMin=10 EnMin= -187.583133786990     IErMin=10 ErrMin= 2.38D-08
 ErrMax= 2.38D-08  0.00D+00 EMaxC= 1.00D-01 BMatC= 1.15D-14 BMatP= 8.19D-13
 IDIUse=1 WtCom= 1.00D+00 WtEn= 0.00D+00
 Coeff-Com:  0.137D-06-0.163D-05-0.275D-05 0.185D-04 0.296D-04-0.446D-03
 Coeff-Com:  0.272D-02 0.176D-01-0.268D+00 0.125D+01
 Coeff:      0.137D-06-0.163D-05-0.275D-05 0.185D-04 0.296D-04-0.446D-03
 Coeff:      0.272D-02 0.176D-01-0.268D+00 0.125D+01
 Gap=     0.677 Goal=   None    Shift=    0.000
 RMSDP=6.73D-09 MaxDP=6.18D-08 DE=-1.53D-12 OVMax= 8.13D-08

 SCF Done:  E(RHF) =  -187.583133787     A.U. after   10 cycles
            NFock= 10  Conv=0.67D-08     -V/T= 2.0077
 KE= 1.861408320497D+02 PE=-5.495202181639D+02 EE= 1.219702171241D+02
 Leave Link  502 at Thu Jul 14 15:56:01 2016, MaxMem=    33554432 cpu:         0.2
 (Enter /share/sw/non-free/gaussian/g09/l601.exe)
 Copying SCF densities to generalized density rwf, IOpCl= 0 IROHF=0.

 **********************************************************************

            Population analysis using the SCF density.

 **********************************************************************

 Orbital symmetries:
       Occupied  (SGU) (SGG) (SGG) (SGG) (SGU) (SGG) (SGU) (PIU)
                 (PIU) (PIG) (PIG)
       Virtual   (PIU) (PIU) (SGG) (SGU) (PIU) (PIU) (SGG) (SGU)
                 (SGG) (PIG) (PIG) (SGU) (PIU) (PIU) (SGG) (PIG)
                 (PIG) (DLTG) (DLTG) (DLTU) (DLTU) (SGU) (DLTG)
                 (DLTG) (PIU) (PIU) (SGG) (PIG) (PIG) (SGU) (SGG)
                 (SGG) (SGG) (SGU)
 The electronic state is 1-SGG.
 Alpha  occ. eigenvalues --  -20.68236 -20.68234 -11.51669  -1.47821  -1.42663
 Alpha  occ. eigenvalues --   -0.80468  -0.71588  -0.67290  -0.67290  -0.53344
 Alpha  occ. eigenvalues --   -0.53344
 Alpha virt. eigenvalues --    0.14398   0.14398   0.21417   0.52113   0.67720
 Alpha virt. eigenvalues --    0.67720   0.73595   0.88178   1.01338   1.14907
 Alpha virt. eigenvalues --    1.14907   1.24801   1.29999   1.29999   1.55853
 Alpha virt. eigenvalues --    1.60675   1.60675   1.67514   1.67514   2.02361
 Alpha virt. eigenvalues --    2.02361   2.06839   2.25475   2.25475   2.32245
 Alpha virt. eigenvalues --    2.32245   2.76822   3.13404   3.13404   3.17593
 Alpha virt. eigenvalues --    3.31617   4.03554   4.66085   4.77157
          Condensed to atoms (all electrons):
               1          2          3
     1  C    3.976128   0.528002   0.528002
     2  O    0.528002   7.983997  -0.028065
     3  O    0.528002  -0.028065   7.983997
 Mulliken charges:
               1
     1  C    0.967868
     2  O   -0.483934
     3  O   -0.483934
 Sum of Mulliken charges =   0.00000
 Mulliken charges with hydrogens summed into heavy atoms:
               1
     1  C    0.967868
     2  O   -0.483934
     3  O   -0.483934
 Electronic spatial extent (au):  <R**2>=            128.2315
 Charge=              0.0000 electrons
 Dipole moment (field-independent basis, Debye):
    X=              0.0000    Y=              0.0000    Z=              0.0000  Tot=              0.0000
 Quadrupole moment (field-independent basis, Debye-Ang):
   XX=            -15.0174   YY=            -15.0174   ZZ=            -20.7416
   XY=              0.0000   XZ=              0.0000   YZ=              0.0000
 Traceless Quadrupole moment (field-independent basis, Debye-Ang):
   XX=              1.9081   YY=              1.9081   ZZ=             -3.8162
   XY=              0.0000   XZ=              0.0000   YZ=              0.0000
 Octapole moment (field-independent basis, Debye-Ang**2):
  XXX=              0.0000  YYY=              0.0000  ZZZ=              0.0000  XYY=              0.0000
  XXY=              0.0000  XXZ=              0.0000  XZZ=              0.0000  YZZ=              0.0000
  YYZ=              0.0000  XYZ=              0.0000
 Hexadecapole moment (field-independent basis, Debye-Ang**3):
 XXXX=            -11.0854 YYYY=            -11.0854 ZZZZ=           -118.3465 XXXY=              0.0000
 XXXZ=              0.0000 YYYX=              0.0000 YYYZ=              0.0000 ZZZX=              0.0000
 ZZZY=              0.0000 XXYY=             -3.6951 XXZZ=            -21.5032 YYZZ=            -21.5032
 XXYZ=              0.0000 YYXZ=              0.0000 ZZXY=              0.0000
 N-N= 5.382603520305D+01 E-N=-5.495202183426D+02  KE= 1.861408320497D+02
 Symmetry AG   KE= 1.008095929434D+02
 Symmetry B1G  KE= 8.350759935994D-34
 Symmetry B2G  KE= 4.635755341732D+00
 Symmetry B3G  KE= 4.635755341732D+00
 Symmetry AU   KE= 1.384173229633D-34
 Symmetry B1U  KE= 6.875592139278D+01
 Symmetry B2U  KE= 3.651903515021D+00
 Symmetry B3U  KE= 3.651903515021D+00
 No NMR shielding tensors so no spin-rotation constants.
 Leave Link  601 at Thu Jul 14 15:56:01 2016, MaxMem=    33554432 cpu:         0.1
 (Enter /share/sw/non-free/gaussian/g09/l701.exe)
 Compute integral first derivatives.
 ... and contract with generalized density number  0.
 DipInt: DoE/N= T T RetVal/Mat= T F Init=T NMatP=  1 IDeriv=0 Min/MaxMlt=  1  1
 Entering OneElI...
 Multipole integrals L=1 to 1 MinM= 0 MaxM= 0.
 Requested accuracy = 0.1000D-12
 PrsmSu:  NPrtUS=   1 ThrOK=F IAlg=1 NPAlg=1 LenDen=           0.
 Prism:   IPart=     0 DynPar=F LinDyn=F Incr=           1.
 PRISM was handed    33538848 working-precision words and    77 shell-pairs
 IPart=  0 NShTot=          77 NBatch=          13 AvBLen=         5.9
 PrSmSu:  NxtVal=              2.
 Entering OneElI...
 Calculate overlap and kinetic energy integrals
    NBasis =  45  MinDer = 1  MaxDer = 1
 Requested accuracy = 0.1000D-12
 PrsmSu:  NPrtUS=   1 ThrOK=F IAlg=1 NPAlg=1 LenDen=           0.
 Prism:   IPart=     0 DynPar=F LinDyn=F Incr=           1.
 PRISM was handed    33536326 working-precision words and    77 shell-pairs
 IPart=  0 NShTot=          77 NBatch=          14 AvBLen=         5.5
 PrSmSu:  NxtVal=              2.
 Entering OneElI...
 Calculate potential energy integrals
    NBasis =  45  MinDer = 1  MaxDer = 1
 Requested accuracy = 0.1000D-12
 PrsmSu:  NPrtUS=   1 ThrOK=F IAlg=1 NPAlg=1 LenDen=           0.
 Prism:   IPart=     0 DynPar=F LinDyn=F Incr=           2.
 PRISM was handed    33538710 working-precision words and    77 shell-pairs
 IPart=  0 NShTot=         231 NBatch=          77 AvBLen=         3.0
 PrSmSu:  NxtVal=              3.
 l701 out
 I=    0 X=   0.000000000000D+00 Y=   0.000000000000D+00 Z=   0.000000000000D+00
 I=    1 X=   0.000000000000D+00 Y=   0.000000000000D+00 Z=   0.000000000000D+00
 I=    2 X=   0.000000000000D+00 Y=   0.000000000000D+00 Z=   1.625943280821D+01
 I=    3 X=   0.000000000000D+00 Y=   0.000000000000D+00 Z=  -1.625943280821D+01
 Leave Link  701 at Thu Jul 14 15:56:01 2016, MaxMem=    33554432 cpu:         0.1
 (Enter /share/sw/non-free/gaussian/g09/l702.exe)
 L702 exits ... SP integral derivatives will be done elsewhere.
 Leave Link  702 at Thu Jul 14 15:56:01 2016, MaxMem=    33554432 cpu:         0.0
 (Enter /share/sw/non-free/gaussian/g09/l703.exe)
 Compute integral first derivatives, UseDBF=F ICtDFT=           0.
 Integral derivatives from FoFJK, PRISM(SPDF).
 ICntrl=      2127.
 Calling FoFJK, ICntrl=      2127 FMM=F ISym2X=1 I1Cent= 0 IOpClX= 0 NMat=1 NMatS=1 NMatT=0.
 FoFJK:  IHMeth= 1 ICntrl=    2127 DoSepK=F KAlg= 0 I1Cent=   0 FoldK=F
 IRaf=         0 NMat=   1 IRICut=       1 DoRegI=T DoRafI=F ISym2E= 1.
 FoFCou: FMM=F IPFlag=           0 FMFlag=      100000 FMFlg1=         800
         NFxFlg=           0 DoJE=F BraDBF=F KetDBF=F FulRan=T
         wScrn=  0.000000 ICntrl=    2127 IOpCl=  0 I1Cent=           0 NGrid=           0
         NMat0=    1 NMatS0=      1 NMatT0=    0 NMatD0=    1 NMtDS0=    0 NMtDT0=    0
 Petite list used in FoFCou.
 FoFCou:  KetSym=F NOpSet=  8 NOpAb=8 NOp=  8.
 FoFCou:  CnvScl= 1.00D+00 Thresh= 1.00D-10 IAcrcy=      10.
 PrismS was handed    33537888 working-precision words and    77 shell-pairs
 FoFCou: LinMIO=F DoNuc=F BraDBF=F KetDBF=F HaveP=T PDBF=F HaveZ=T HaveW=F
         NIJTC =       6 NIJTAt=       0 NIJTCD=       0 NIJTT =       6
         IJTBeg=       1 IJTEnd=       6 KLTBeg=       1 KLTEnd=       6
         IPTBeg=       1 IPTEnd=       6 IPTBCv=       1 IPTECv=       6
         IZTBeg=       1 IZTEnd=       6 IZTBCv=       1 IZTECv=       6
         IWTBeg=       7 IWTEnd=       6 IWTBCv=       7 IWTECv=       6
         INTBeg=       1 INTEnd=       0 IFTBCv=       1 IFTECv=       6
 NCel replicated for PrismC:     1
 CoulSu:  IncDef=  1024 NBBP=           3003 NTPThr=   100 NPartT=    1 Incr=          30 LDynOK=F.
 CoulSu:  NPrtUS=   1 ThrOK=F IAlg=1 NPAlg=1 LenDen=           0 LWGrdD=           0 DoCopy=F.
 Enter PrismC: JobTyp=21 DoJE=F Cont=F.
 PrismC:  IPart=     0 DynPar=F LinDyn=F Incr=          30 UseFst=F UseS4=T IGathr=2.
 PrismC was handed    33537782 working-precision words and    77 shell-pairs
 IPart=  0 NShTot=        1521 NShNF=        1521 NShFF=           0 NBatch=         129 AvBLen=        11.8
 CoulSu:  NxtVal=             31.
 Forces at end of L703
 I=    0 X=   0.000000000000D+00 Y=   0.000000000000D+00 Z=   0.000000000000D+00
 I=    1 X=   0.000000000000D+00 Y=   0.000000000000D+00 Z=   0.000000000000D+00
 I=    2 X=   0.000000000000D+00 Y=   0.000000000000D+00 Z=   2.048796016708D-01
 I=    3 X=   0.000000000000D+00 Y=   0.000000000000D+00 Z=  -2.048796016708D-01
 Leave Link  703 at Thu Jul 14 15:56:01 2016, MaxMem=    33554432 cpu:         0.2
 (Enter /share/sw/non-free/gaussian/g09/l716.exe)
 FrcOut:
 IF    =    74 IFX   =    83 IFXYZ =    92
 IFFX  =   101 IFFFX =   101 IFLen =     9
 IFFLen=     0 IFFFLn=     0 IEDerv=   101
 LEDerv=   485 IFroze=   713 ICStrt=  4895
 Dipole        =-1.52364701D-16 1.88079096D-36 0.00000000D+00
 Quadrupole    = 1.41860831D+00 1.41860831D+00-2.83721663D+00
                 1.00205991D-33 3.37789378D-16 1.54390517D-17
 Forces in standard orientation:
 -------------------------------------------------------------------
 Center     Atomic                   Forces (Hartrees/Bohr)
 Number     Number              X              Y              Z
 -------------------------------------------------------------------
      1        6           0.000000000    0.000000000    0.000000000
      2        8           0.000000000    0.000000000    0.204879602
      3        8           0.000000000    0.000000000   -0.204879602
 -------------------------------------------------------------------
 ***** Axes restored to original set *****
 Rotating derivatives, DoTrsp=F IDiff=-1 LEDeriv=    484 LFDPrp=       0 LDFDPr=       0.
 -------------------------------------------------------------------
 Center     Atomic                   Forces (Hartrees/Bohr)
 Number     Number              X              Y              Z
 -------------------------------------------------------------------
      1        6           0.000000000    0.000000000    0.000000000
      2        8          -0.204879602    0.000000000    0.000000000
      3        8           0.204879602    0.000000000    0.000000000
 -------------------------------------------------------------------
 Cartesian Forces:  Max     0.204879602 RMS     0.096581170
 Final forces over variables, Energy=-1.87583134D+02:
  0.00000000D+00 0.00000000D+00 0.00000000D+00 0.00000000D+00
 Leave Link  716 at Thu Jul 14 15:56:01 2016, MaxMem=    33554432 cpu:         0.0
 (Enter /share/sw/non-free/gaussian/g09/l103.exe)

 GradGradGradGradGradGradGradGradGradGradGradGradGradGradGradGradGradGrad
 Berny optimization.
 FormGI is forming the generalized inverse of G from B-inverse, IUseBI=4.
 Internal  Forces:  Max     0.204879602 RMS     0.144871756
 Search for a local minimum.
 Step number   1 out of a maximum of   20
 All quantities printed in internal units (Hartrees-Bohrs-Radians)
 RMS Force = .14487D+00 SwitMx=.10000D-02 MixMth= 1
 Mixed Optimization -- RFO/linear search
 Second derivative matrix not updated -- first step.
 The second derivative matrix:
                          R1        R2        A1        A2
           R1           0.80209
           R2           0.00000   0.80209
           A1           0.00000   0.00000   0.03565
           A2           0.00000   0.00000   0.00000   0.03565
 ITU=  0
     Eigenvalues ---    0.03565   0.03565   0.80209   0.80209
 RFO step:  Lambda=-9.37161531D-02 EMin= 3.56487685D-02
 Linear search not attempted -- first point.
 Maximum step size (   0.300) exceeded in Quadratic search.
    -- Step size scaled by   0.928
 Iteration  1 RMS(Cart)=  0.14142136 RMS(Int)=  0.00857864
 Iteration  2 RMS(Cart)=  0.00857864 RMS(Int)=  0.00000000
 Iteration  3 RMS(Cart)=  0.00000000 RMS(Int)=  0.00000000
 ITry= 1 IFail=0 DXMaxC= 2.12D-01 DCOld= 1.00D+10 DXMaxT= 3.00D-01 DXLimC= 3.00D+00 Rises=F
 ClnCor:  largest displacement from symmetrization is 1.21D-13 for atom     1.
 Variable       Old X    -DE/DX   Delta X   Delta X   Delta X     New X
                                 (Linear)    (Quad)   (Total)
    R1        2.37803  -0.20488   0.00000  -0.21213  -0.21213   2.16590
    R2        2.37803  -0.20488   0.00000  -0.21213  -0.21213   2.16590
    A1        3.14159   0.00000   0.00000   0.00000   0.00000   3.14159
    A2        3.14159   0.00000   0.00000   0.00000   0.00000   3.14159
         Item               Value     Threshold  Converged?
 Maximum Force            0.204880     0.000450     NO 
 RMS     Force            0.144872     0.000300     NO 
 Maximum Displacement     0.212132     0.001800     NO 
 RMS     Displacement     0.150000     0.001200     NO 
 Predicted change in Energy=-5.082910D-02
 Lowest energy point so far.  Saving SCF results.
 GradGradGradGradGradGradGradGradGradGradGradGradGradGradGradGradGradGrad

 Leave Link  103 at Thu Jul 14 15:56:01 2016, MaxMem=    33554432 cpu:         0.0
 (Enter /share/sw/non-free/gaussian/g09/l202.exe)
                          Input orientation:                          
 ---------------------------------------------------------------------
 Center     Atomic      Atomic             Coordinates (Angstroms)
 Number     Number       Type             X           Y           Z
 ---------------------------------------------------------------------
      1          6           0       -0.916335    0.073041    0.000000
      2          8           0        0.229810    0.073041    0.000000
      3          8           0       -2.062479    0.073041    0.000000
 ---------------------------------------------------------------------
                    Distance matrix (angstroms):
                    1          2          3
     1  C    0.000000
     2  O    1.146145   0.000000
     3  O    1.146145   2.292289   0.000000
 Stoichiometry    CO2
 Framework group  D*H[O(C),C*(O.O)]
 Deg. of freedom     1
 Full point group                 D*H     NOp   8
 RotChk:  IX=0 Diff= 8.66D-17
 Largest Abelian subgroup         D2H     NOp   8
 Largest concise Abelian subgroup C2      NOp   2
                         Standard orientation:                         
 ---------------------------------------------------------------------
 Center     Atomic      Atomic             Coordinates (Angstroms)
 Number     Number       Type             X           Y           Z
 ---------------------------------------------------------------------
      1          6           0        0.000000    0.000000    0.000000
      2          8           0        0.000000    0.000000    1.146145
      3          8           0        0.000000    0.000000   -1.146145
 ---------------------------------------------------------------------
 Rotational constants (GHZ):      0.0000000     12.0261461     12.0261461
 Leave Link  202 at Thu Jul 14 15:56:01 2016, MaxMem=    33554432 cpu:         0.0
 (Enter /share/sw/non-free/gaussian/g09/l301.exe)
 Standard basis: 6-31G(d) (6D, 7F)
 Ernie: Thresh=  0.10000D-02 Tol=  0.10000D-05 Strict=F.
 There are    14 symmetry adapted cartesian basis functions of AG  symmetry.
 There are     2 symmetry adapted cartesian basis functions of B1G symmetry.
 There are     4 symmetry adapted cartesian basis functions of B2G symmetry.
 There are     4 symmetry adapted cartesian basis functions of B3G symmetry.
 There are     1 symmetry adapted cartesian basis functions of AU  symmetry.
 There are    10 symmetry adapted cartesian basis functions of B1U symmetry.
 There are     5 symmetry adapted cartesian basis functions of B2U symmetry.
 There are     5 symmetry adapted cartesian basis functions of B3U symmetry.
 There are    14 symmetry adapted basis functions of AG  symmetry.
 There are     2 symmetry adapted basis functions of B1G symmetry.
 There are     4 symmetry adapted basis functions of B2G symmetry.
 There are     4 symmetry adapted basis functions of B3G symmetry.
 There are     1 symmetry adapted basis functions of AU  symmetry.
 There are    10 symmetry adapted basis functions of B1U symmetry.
 There are     5 symmetry adapted basis functions of B2U symmetry.
 There are     5 symmetry adapted basis functions of B3U symmetry.
    45 basis functions,    84 primitive gaussians,    45 cartesian basis functions
    11 alpha electrons       11 beta electrons
       nuclear repulsion energy        59.0978528652 Hartrees.
 IExCor=    0 DFT=F Ex=HF Corr=None ExCW=0 ScaHFX=  1.000000
 ScaDFX=  1.000000  1.000000  1.000000  1.000000 ScalE2=  1.000000  1.000000
 IRadAn=      0 IRanWt=     -1 IRanGd=            0 ICorTp=0 IEmpDi=  4
 NAtoms=    3 NActive=    3 NUniq=    2 SFac= 2.25D+00 NAtFMM=   60 NAOKFM=F Big=F
 Integral buffers will be    131072 words long.
 Raffenetti 1 integral format.
 Two-electron integral symmetry is turned on.
 Leave Link  301 at Thu Jul 14 15:56:01 2016, MaxMem=    33554432 cpu:         0.0
 (Enter /share/sw/non-free/gaussian/g09/l302.exe)
 NPDir=0 NMtPBC=     1 NCelOv=     1 NCel=       1 NClECP=     1 NCelD=      1
         NCelK=      1 NCelE2=     1 NClLst=     1 CellRange=     0.0.
 One-electron integrals computed using PRISM.
 One-electron integral symmetry used in STVInt
 NBasis=    45 RedAO= T EigKep=  4.39D-03  NBF=    14     2     4     4     1    10     5     5
 NBsUse=    45 1.00D-06 EigRej= -1.00D+00 NBFU=    14     2     4     4     1    10     5     5
 Leave Link  302 at Thu Jul 14 15:56:02 2016, MaxMem=    33554432 cpu:         0.1
 (Enter /share/sw/non-free/gaussian/g09/l303.exe)
 DipDrv:  MaxL=1.
 Leave Link  303 at Thu Jul 14 15:56:02 2016, MaxMem=    33554432 cpu:         0.0
 (Enter /share/sw/non-free/gaussian/g09/l401.exe)
 Initial guess from the checkpoint file:  "/scratch/users/ekwan16/numfreq/Gau-8749.chk"
 B after Tr=     0.000000    0.000000    0.000000
         Rot=    1.000000    0.000000    0.000000    0.000000 Ang=   0.00 deg.
 Guess basis will be translated and rotated to current coordinates.
 JPrj=2 DoOrth=T DoCkMO=T.
 Initial guess orbital symmetries:
       Occupied  (SGU) (SGG) (SGG) (SGG) (SGU) (SGG) (SGU) (PIU)
                 (PIU) (PIG) (PIG)
       Virtual   (SGG) (SGG) (SGG) (SGG) (DLTG) (SGG) (DLTG) (SGG)
                 (SGG) (SGG) (DLTG) (DLTG) (PIG) (PIG) (PIG) (PIG)
                 (PIG) (PIG) (DLTU) (SGU) (SGU) (SGU) (SGU) (DLTU)
                 (SGU) (SGU) (PIU) (PIU) (PIU) (PIU) (PIU) (PIU)
                 (PIU) (PIU)
 The electronic state of the initial guess is 1-SGG.
 Generating alternative initial guess.
 ExpMin= 1.69D-01 ExpMax= 5.48D+03 ExpMxC= 8.25D+02 IAcc=1 IRadAn=         1 AccDes= 0.00D+00
 Harris functional with IExCor=  205 and IRadAn=       1 diagonalized for initial guess.
 HarFok:  IExCor=  205 AccDes= 0.00D+00 IRadAn=         1 IDoV= 1 UseB2=F ITyADJ=14
 ICtDFT=  3500011 ScaDFX=  1.000000  1.000000  1.000000  1.000000
 FoFCou: FMM=F IPFlag=           0 FMFlag=      100000 FMFlg1=           0
         NFxFlg=           0 DoJE=T BraDBF=F KetDBF=T FulRan=T
         wScrn=  0.000000 ICntrl=     500 IOpCl=  0 I1Cent=   200000004 NGrid=           0
         NMat0=    1 NMatS0=      1 NMatT0=    0 NMatD0=    1 NMtDS0=    0 NMtDT0=    0
 Petite list used in FoFCou.
 Harris En= -187.648680521670    
 Leave Link  401 at Thu Jul 14 15:56:02 2016, MaxMem=    33554432 cpu:         0.1
 (Enter /share/sw/non-free/gaussian/g09/l502.exe)
 Closed shell SCF:
 Using DIIS extrapolation, IDIIS=  1040.
 Integral symmetry usage will be decided dynamically.
 Keep R1 ints in memory in symmetry-blocked form, NReq=1398067.
 IVT=       25385 IEndB=       25385 NGot=    33554432 MDV=    33448410
 LenX=    33448410 LenY=    33445944
 Requested convergence on RMS density matrix=1.00D-08 within 128 cycles.
 Requested convergence on MAX density matrix=1.00D-06.
 Requested convergence on             energy=1.00D-06.
 No special actions if energy rises.
 FoFCou: FMM=F IPFlag=           0 FMFlag=           0 FMFlg1=           0
         NFxFlg=           0 DoJE=F BraDBF=F KetDBF=F FulRan=T
         wScrn=  0.000000 ICntrl=     600 IOpCl=  0 I1Cent=           0 NGrid=           0
         NMat0=    1 NMatS0=   1035 NMatT0=    0 NMatD0=    1 NMtDS0=    0 NMtDT0=    0
 Petite list used in FoFCou.

 Cycle   1  Pass 1  IDiag  1:
 E= -187.615167701083    
 DIIS: error= 2.33D-02 at cycle   1 NSaved=   1.
 NSaved= 1 IEnMin= 1 EnMin= -187.615167701083     IErMin= 1 ErrMin= 2.33D-02
 ErrMax= 2.33D-02  0.00D+00 EMaxC= 1.00D-01 BMatC= 1.64D-02 BMatP= 1.64D-02
 IDIUse=3 WtCom= 7.67D-01 WtEn= 2.33D-01
 Coeff-Com:  0.100D+01
 Coeff-En:   0.100D+01
 Coeff:      0.100D+01
 Recover alternate guess density for next cycle.
 RMSDP=7.95D-03 MaxDP=8.22D-02              OVMax= 0.00D+00

 Cycle   2  Pass 1  IDiag  1:
 E= -187.557838436688     Delta-E=        0.057329264396 Rises=F Damp=F
 Switch densities from cycles 1 and 2 for lowest energy.
 DIIS: error= 7.57D-02 at cycle   2 NSaved=   2.
 NSaved= 2 IEnMin= 1 EnMin= -187.615167701083     IErMin= 1 ErrMin= 2.33D-02
 ErrMax= 7.57D-02  0.00D+00 EMaxC= 1.00D+00 BMatC= 1.96D-01 BMatP= 1.64D-02
 IDIUse=1 WtCom= 1.00D+00 WtEn= 0.00D+00
 Coeff-Com:  0.862D+00 0.138D+00
 Coeff:      0.862D+00 0.138D+00
 Gap=     0.903 Goal=   None    Shift=    0.000
 RMSDP=3.44D-03 MaxDP=2.27D-02 DE= 5.73D-02 OVMax= 3.92D-02

 Cycle   3  Pass 1  IDiag  1:
 E= -187.632913192221     Delta-E=       -0.075074755534 Rises=F Damp=F
 DIIS: error= 5.64D-03 at cycle   3 NSaved=   3.
 NSaved= 3 IEnMin= 3 EnMin= -187.632913192221     IErMin= 3 ErrMin= 5.64D-03
 ErrMax= 5.64D-03  0.00D+00 EMaxC= 1.00D+00 BMatC= 8.41D-04 BMatP= 1.64D-02
 IDIUse=1 WtCom= 1.00D+00 WtEn= 0.00D+00
 Coeff-Com:  0.146D-01 0.182D-01 0.967D+00
 Coeff:      0.146D-01 0.182D-01 0.967D+00
 Gap=     0.771 Goal=   None    Shift=    0.000
 RMSDP=8.97D-04 MaxDP=1.02D-02 DE=-7.51D-02 OVMax= 1.52D-02

 Cycle   4  Pass 1  IDiag  1:
 E= -187.633960435239     Delta-E=       -0.001047243018 Rises=F Damp=F
 DIIS: error= 1.93D-03 at cycle   4 NSaved=   4.
 NSaved= 4 IEnMin= 4 EnMin= -187.633960435239     IErMin= 4 ErrMin= 1.93D-03
 ErrMax= 1.93D-03  0.00D+00 EMaxC= 1.00D+00 BMatC= 1.12D-04 BMatP= 8.41D-04
 IDIUse=1 WtCom= 1.00D+00 WtEn= 0.00D+00
 Coeff-Com: -0.580D-01-0.113D-01 0.561D-01 0.101D+01
 Coeff:     -0.580D-01-0.113D-01 0.561D-01 0.101D+01
 Gap=     0.767 Goal=   None    Shift=    0.000
 RMSDP=3.19D-04 MaxDP=2.85D-03 DE=-1.05D-03 OVMax= 4.71D-03

 Cycle   5  Pass 1  IDiag  1:
 E= -187.634116397955     Delta-E=       -0.000155962716 Rises=F Damp=F
 DIIS: error= 7.58D-04 at cycle   5 NSaved=   5.
 NSaved= 5 IEnMin= 5 EnMin= -187.634116397955     IErMin= 5 ErrMin= 7.58D-04
 ErrMax= 7.58D-04  0.00D+00 EMaxC= 1.00D+00 BMatC= 1.67D-05 BMatP= 1.12D-04
 IDIUse=1 WtCom= 1.00D+00 WtEn= 0.00D+00
 Coeff-Com: -0.115D-01 0.980D-03-0.722D-01 0.181D+00 0.902D+00
 Coeff:     -0.115D-01 0.980D-03-0.722D-01 0.181D+00 0.902D+00
 Gap=     0.768 Goal=   None    Shift=    0.000
 RMSDP=1.06D-04 MaxDP=1.25D-03 DE=-1.56D-04 OVMax= 1.97D-03

 Cycle   6  Pass 1  IDiag  1:
 E= -187.634133867425     Delta-E=       -0.000017469470 Rises=F Damp=F
 DIIS: error= 1.45D-04 at cycle   6 NSaved=   6.
 NSaved= 6 IEnMin= 6 EnMin= -187.634133867425     IErMin= 6 ErrMin= 1.45D-04
 ErrMax= 1.45D-04  0.00D+00 EMaxC= 1.00D+00 BMatC= 4.88D-07 BMatP= 1.67D-05
 IDIUse=1 WtCom= 1.00D+00 WtEn= 0.00D+00
 Coeff-Com:  0.581D-02 0.312D-03-0.366D-02-0.751D-01-0.150D+00 0.122D+01
 Coeff:      0.581D-02 0.312D-03-0.366D-02-0.751D-01-0.150D+00 0.122D+01
 Gap=     0.768 Goal=   None    Shift=    0.000
 RMSDP=3.29D-05 MaxDP=2.98D-04 DE=-1.75D-05 OVMax= 4.95D-04

 Cycle   7  Pass 1  IDiag  1:
 E= -187.634134887421     Delta-E=       -0.000001019997 Rises=F Damp=F
 DIIS: error= 2.65D-05 at cycle   7 NSaved=   7.
 NSaved= 7 IEnMin= 7 EnMin= -187.634134887421     IErMin= 7 ErrMin= 2.65D-05
 ErrMax= 2.65D-05  0.00D+00 EMaxC= 1.00D+00 BMatC= 1.55D-08 BMatP= 4.88D-07
 IDIUse=1 WtCom= 1.00D+00 WtEn= 0.00D+00
 Coeff-Com: -0.109D-02-0.856D-04 0.245D-02 0.159D-01-0.721D-02-0.246D+00
 Coeff-Com:  0.124D+01
 Coeff:     -0.109D-02-0.856D-04 0.245D-02 0.159D-01-0.721D-02-0.246D+00
 Coeff:      0.124D+01
 Gap=     0.768 Goal=   None    Shift=    0.000
 RMSDP=4.29D-06 MaxDP=4.70D-05 DE=-1.02D-06 OVMax= 4.85D-05

 Cycle   8  Pass 1  IDiag  1:
 E= -187.634134906935     Delta-E=       -0.000000019514 Rises=F Damp=F
 DIIS: error= 2.80D-06 at cycle   8 NSaved=   8.
 NSaved= 8 IEnMin= 8 EnMin= -187.634134906935     IErMin= 8 ErrMin= 2.80D-06
 ErrMax= 2.80D-06  0.00D+00 EMaxC= 1.00D+00 BMatC= 1.85D-10 BMatP= 1.55D-08
 IDIUse=1 WtCom= 1.00D+00 WtEn= 0.00D+00
 Coeff-Com:  0.108D-03 0.717D-05-0.358D-03-0.129D-02 0.144D-02 0.315D-01
 Coeff-Com: -0.242D+00 0.121D+01
 Coeff:      0.108D-03 0.717D-05-0.358D-03-0.129D-02 0.144D-02 0.315D-01
 Coeff:     -0.242D+00 0.121D+01
 Gap=     0.768 Goal=   None    Shift=    0.000
 RMSDP=8.98D-07 MaxDP=8.86D-06 DE=-1.95D-08 OVMax= 7.92D-06

 Cycle   9  Pass 1  IDiag  1:
 E= -187.634134907190     Delta-E=       -0.000000000255 Rises=F Damp=F
 DIIS: error= 1.60D-07 at cycle   9 NSaved=   9.
 NSaved= 9 IEnMin= 9 EnMin= -187.634134907190     IErMin= 9 ErrMin= 1.60D-07
 ErrMax= 1.60D-07  0.00D+00 EMaxC= 1.00D+00 BMatC= 7.77D-13 BMatP= 1.85D-10
 IDIUse=1 WtCom= 1.00D+00 WtEn= 0.00D+00
 Coeff-Com: -0.206D-05-0.124D-06 0.119D-04 0.117D-04-0.261D-05-0.134D-02
 Coeff-Com:  0.140D-01-0.137D+00 0.112D+01
 Coeff:     -0.206D-05-0.124D-06 0.119D-04 0.117D-04-0.261D-05-0.134D-02
 Coeff:      0.140D-01-0.137D+00 0.112D+01
 Gap=     0.768 Goal=   None    Shift=    0.000
 RMSDP=6.49D-08 MaxDP=7.90D-07 DE=-2.55D-10 OVMax= 6.60D-07

 Cycle  10  Pass 1  IDiag  1:
 E= -187.634134907191     Delta-E=       -0.000000000002 Rises=F Damp=F
 DIIS: error= 2.14D-08 at cycle  10 NSaved=  10.
 NSaved=10 IEnMin=10 EnMin= -187.634134907191     IErMin=10 ErrMin= 2.14D-08
 ErrMax= 2.14D-08  0.00D+00 EMaxC= 1.00D+00 BMatC= 8.10D-15 BMatP= 7.77D-13
 IDIUse=1 WtCom= 1.00D+00 WtEn= 0.00D+00
 Coeff-Com: -0.810D-07-0.601D-08-0.559D-06 0.292D-05-0.436D-05 0.783D-04
 Coeff-Com: -0.112D-02 0.185D-01-0.213D+00 0.120D+01
 Coeff:     -0.810D-07-0.601D-08-0.559D-06 0.292D-05-0.436D-05 0.783D-04
 Coeff:     -0.112D-02 0.185D-01-0.213D+00 0.120D+01
 Gap=     0.768 Goal=   None    Shift=    0.000
 RMSDP=3.70D-09 MaxDP=3.63D-08 DE=-1.53D-12 OVMax= 3.13D-08

 SCF Done:  E(RHF) =  -187.634134907     A.U. after   10 cycles
            NFock= 10  Conv=0.37D-08     -V/T= 2.0030
 KE= 1.870786391850D+02 PE=-5.608361651514D+02 EE= 1.270255381940D+02
 Leave Link  502 at Thu Jul 14 15:56:02 2016, MaxMem=    33554432 cpu:         0.2
 (Enter /share/sw/non-free/gaussian/g09/l701.exe)
 Compute integral first derivatives.
 ... and contract with generalized density number  0.
 DipInt: DoE/N= T T RetVal/Mat= T F Init=T NMatP=  1 IDeriv=0 Min/MaxMlt=  1  1
 Entering OneElI...
 Multipole integrals L=1 to 1 MinM= 0 MaxM= 0.
 Requested accuracy = 0.1000D-12
 PrsmSu:  NPrtUS=   1 ThrOK=F IAlg=1 NPAlg=1 LenDen=           0.
 Prism:   IPart=     0 DynPar=F LinDyn=F Incr=           1.
 PRISM was handed    33538773 working-precision words and    77 shell-pairs
 IPart=  0 NShTot=          77 NBatch=          14 AvBLen=         5.5
 PrSmSu:  NxtVal=              2.
 Entering OneElI...
 Calculate overlap and kinetic energy integrals
    NBasis =  45  MinDer = 1  MaxDer = 1
 Requested accuracy = 0.1000D-12
 PrsmSu:  NPrtUS=   1 ThrOK=F IAlg=1 NPAlg=1 LenDen=           0.
 Prism:   IPart=     0 DynPar=F LinDyn=F Incr=           1.
 PRISM was handed    33535998 working-precision words and    78 shell-pairs
 IPart=  0 NShTot=          78 NBatch=          14 AvBLen=         5.6
 PrSmSu:  NxtVal=              2.
 Entering OneElI...
 Calculate potential energy integrals
    NBasis =  45  MinDer = 1  MaxDer = 1
 Requested accuracy = 0.1000D-12
 PrsmSu:  NPrtUS=   1 ThrOK=F IAlg=1 NPAlg=1 LenDen=           0.
 Prism:   IPart=     0 DynPar=F LinDyn=F Incr=           2.
 PRISM was handed    33538551 working-precision words and    77 shell-pairs
 IPart=  0 NShTot=         231 NBatch=          77 AvBLen=         3.0
 PrSmSu:  NxtVal=              3.
 l701 out
 I=    0 X=   0.000000000000D+00 Y=   0.000000000000D+00 Z=   0.000000000000D+00
 I=    1 X=   0.000000000000D+00 Y=   0.000000000000D+00 Z=   0.000000000000D+00
 I=    2 X=   0.000000000000D+00 Y=   0.000000000000D+00 Z=   1.856115439572D+01
 I=    3 X=   0.000000000000D+00 Y=   0.000000000000D+00 Z=  -1.856115439572D+01
 Leave Link  701 at Thu Jul 14 15:56:02 2016, MaxMem=    33554432 cpu:         0.1
 (Enter /share/sw/non-free/gaussian/g09/l702.exe)
 L702 exits ... SP integral derivatives will be done elsewhere.
 Leave Link  702 at Thu Jul 14 15:56:02 2016, MaxMem=    33554432 cpu:         0.0
 (Enter /share/sw/non-free/gaussian/g09/l703.exe)
 Compute integral first derivatives, UseDBF=F ICtDFT=           0.
 Integral derivatives from FoFJK, PRISM(SPDF).
 ICntrl=      2127.
 Calling FoFJK, ICntrl=      2127 FMM=F ISym2X=1 I1Cent= 0 IOpClX= 0 NMat=1 NMatS=1 NMatT=0.
 FoFJK:  IHMeth= 1 ICntrl=    2127 DoSepK=F KAlg= 0 I1Cent=   0 FoldK=F
 IRaf=         0 NMat=   1 IRICut=       1 DoRegI=T DoRafI=F ISym2E= 1.
 FoFCou: FMM=F IPFlag=           0 FMFlag=      100000 FMFlg1=         800
         NFxFlg=           0 DoJE=F BraDBF=F KetDBF=F FulRan=T
         wScrn=  0.000000 ICntrl=    2127 IOpCl=  0 I1Cent=           0 NGrid=           0
         NMat0=    1 NMatS0=      1 NMatT0=    0 NMatD0=    1 NMtDS0=    0 NMtDT0=    0
 Petite list used in FoFCou.
 FoFCou:  KetSym=F NOpSet=  8 NOpAb=8 NOp=  8.
 FoFCou:  CnvScl= 1.00D+00 Thresh= 1.00D-10 IAcrcy=      10.
 PrismS was handed    33537811 working-precision words and    77 shell-pairs
 FoFCou: LinMIO=F DoNuc=F BraDBF=F KetDBF=F HaveP=T PDBF=F HaveZ=T HaveW=F
         NIJTC =       6 NIJTAt=       0 NIJTCD=       0 NIJTT =       6
         IJTBeg=       1 IJTEnd=       6 KLTBeg=       1 KLTEnd=       6
         IPTBeg=       1 IPTEnd=       6 IPTBCv=       1 IPTECv=       6
         IZTBeg=       1 IZTEnd=       6 IZTBCv=       1 IZTECv=       6
         IWTBeg=       7 IWTEnd=       6 IWTBCv=       7 IWTECv=       6
         INTBeg=       1 INTEnd=       0 IFTBCv=       1 IFTECv=       6
 NCel replicated for PrismC:     1
 CoulSu:  IncDef=  1024 NBBP=           3003 NTPThr=   100 NPartT=    1 Incr=          30 LDynOK=F.
 CoulSu:  NPrtUS=   1 ThrOK=F IAlg=1 NPAlg=1 LenDen=           0 LWGrdD=           0 DoCopy=F.
 Enter PrismC: JobTyp=21 DoJE=F Cont=F.
 PrismC:  IPart=     0 DynPar=F LinDyn=F Incr=          30 UseFst=F UseS4=T IGathr=2.
 PrismC was handed    33537705 working-precision words and    77 shell-pairs
 IPart=  0 NShTot=        1549 NShNF=        1549 NShFF=           0 NBatch=         147 AvBLen=        10.5
 CoulSu:  NxtVal=             31.
 Forces at end of L703
 I=    0 X=   0.000000000000D+00 Y=   0.000000000000D+00 Z=   0.000000000000D+00
 I=    1 X=   0.000000000000D+00 Y=   0.000000000000D+00 Z=   0.000000000000D+00
 I=    2 X=   0.000000000000D+00 Y=   0.000000000000D+00 Z=   7.541965554832D-03
 I=    3 X=   0.000000000000D+00 Y=   0.000000000000D+00 Z=  -7.541965554843D-03
 Leave Link  703 at Thu Jul 14 15:56:02 2016, MaxMem=    33554432 cpu:         0.1
 (Enter /share/sw/non-free/gaussian/g09/l716.exe)
 FrcOut:
 IF    =    74 IFX   =    83 IFXYZ =    92
 IFFX  =   101 IFFFX =   101 IFLen =     9
 IFFLen=     0 IFFFLn=     0 IEDerv=   101
 LEDerv=   485 IFroze=   713 ICStrt=  4895
 Dipole        =-1.34335999D-16 0.00000000D+00 0.00000000D+00
 Forces in standard orientation:
 -------------------------------------------------------------------
 Center     Atomic                   Forces (Hartrees/Bohr)
 Number     Number              X              Y              Z
 -------------------------------------------------------------------
      1        6           0.000000000    0.000000000    0.000000000
      2        8           0.000000000    0.000000000    0.007541966
      3        8           0.000000000    0.000000000   -0.007541966
 -------------------------------------------------------------------
 ***** Axes restored to original set *****
 Rotating derivatives, DoTrsp=F IDiff=-1 LEDeriv=    484 LFDPrp=       0 LDFDPr=       0.
 -------------------------------------------------------------------
 Center     Atomic                   Forces (Hartrees/Bohr)
 Number     Number              X              Y              Z
 -------------------------------------------------------------------
      1        6           0.000000000    0.000000000    0.000000000
      2        8          -0.007541966    0.000000000    0.000000000
      3        8           0.007541966    0.000000000    0.000000000
 -------------------------------------------------------------------
 Cartesian Forces:  Max     0.007541966 RMS     0.003555317
 Final forces over variables, Energy=-1.87634135D+02:
 -2.04879602D-01-2.04879602D-01-2.95120547D-15-4.92579031D-16
 Leave Link  716 at Thu Jul 14 15:56:02 2016, MaxMem=    33554432 cpu:         0.0
 (Enter /share/sw/non-free/gaussian/g09/l103.exe)

 GradGradGradGradGradGradGradGradGradGradGradGradGradGradGradGradGradGrad
 Berny optimization.
 Using GEDIIS/GDIIS optimizer.
 Red2BG is reusing G-inverse.
 Internal  Forces:  Max     0.007541966 RMS     0.005332975
 Search for a local minimum.
 Step number   2 out of a maximum of   20
 All quantities printed in internal units (Hartrees-Bohrs-Radians)
 RMS Force = .53330D-02 SwitMx=.10000D-02 MixMth= 1
 Mixed Optimization -- RFO/linear search
 Update second derivatives using D2CorX and points    1    2
 DE= -5.10D-02 DEPred=-5.08D-02 R= 1.00D+00
 TightC=F SS=  1.41D+00  RLast= 3.00D-01 DXNew= 5.0454D-01 9.0000D-01
 Trust test= 1.00D+00 RLast= 3.00D-01 DXMaxT set to 5.05D-01
 The second derivative matrix:
                          R1        R2        A1        A2
           R1           0.86617
           R2           0.06409   0.86617
           A1           0.00000   0.00000   0.03565
           A2           0.00000   0.00000   0.00000   0.03565
 ITU=  1  0
 Use linear search instead of GDIIS.
     Eigenvalues ---    0.03565   0.03565   0.80209   0.93026
 RFO step:  Lambda= 0.00000000D+00 EMin= 3.56487685D-02
 Quartic linear search produced a step of  0.02600.
 Iteration  1 RMS(Cart)=  0.00390029 RMS(Int)=  0.00000000
 Iteration  2 RMS(Cart)=  0.00000000 RMS(Int)=  0.00000000
 ITry= 1 IFail=0 DXMaxC= 5.52D-03 DCOld= 1.00D+10 DXMaxT= 5.05D-01 DXLimC= 3.00D+00 Rises=F
 ClnCor:  largest displacement from symmetrization is 2.91D-13 for atom     1.
 Variable       Old X    -DE/DX   Delta X   Delta X   Delta X     New X
                                 (Linear)    (Quad)   (Total)
    R1        2.16590  -0.00754  -0.00552   0.00000  -0.00552   2.16038
    R2        2.16590  -0.00754  -0.00552   0.00000  -0.00552   2.16038
    A1        3.14159   0.00000   0.00000   0.00000   0.00000   3.14159
    A2        3.14159   0.00000   0.00000   0.00000   0.00000   3.14159
         Item               Value     Threshold  Converged?
 Maximum Force            0.007542     0.000450     NO 
 RMS     Force            0.005333     0.000300     NO 
 Maximum Displacement     0.005516     0.001800     NO 
 RMS     Displacement     0.003900     0.001200     NO 
 Predicted change in Energy=-5.489790D-05
 Lowest energy point so far.  Saving SCF results.
 GradGradGradGradGradGradGradGradGradGradGradGradGradGradGradGradGradGrad

 Leave Link  103 at Thu Jul 14 15:56:03 2016, MaxMem=    33554432 cpu:         0.0
 (Enter /share/sw/non-free/gaussian/g09/l202.exe)
                          Input orientation:                          
 ---------------------------------------------------------------------
 Center     Atomic      Atomic             Coordinates (Angstroms)
 Number     Number       Type             X           Y           Z
 ---------------------------------------------------------------------
      1          6           0       -0.916335    0.073041    0.000000
      2          8           0        0.226891    0.073041    0.000000
      3          8           0       -2.059560    0.073041    0.000000
 ---------------------------------------------------------------------
                    Distance matrix (angstroms):
                    1          2          3
     1  C    0.000000
     2  O    1.143226   0.000000
     3  O    1.143226   2.286451   0.000000
 Stoichiometry    CO2
 Framework group  D*H[O(C),C*(O.O)]
 Deg. of freedom     1
 Full point group                 D*H     NOp   8
 RotChk:  IX=0 Diff= 8.66D-17
 Largest Abelian subgroup         D2H     NOp   8
 Largest concise Abelian subgroup C2      NOp   2
                         Standard orientation:                         
 ---------------------------------------------------------------------
 Center     Atomic      Atomic             Coordinates (Angstroms)
 Number     Number       Type             X           Y           Z
 ---------------------------------------------------------------------
      1          6           0        0.000000    0.000000    0.000000
      2          8           0        0.000000    0.000000    1.143226
      3          8           0        0.000000    0.000000   -1.143226
 ---------------------------------------------------------------------
 Rotational constants (GHZ):      0.0000000     12.0876343     12.0876343
 Leave Link  202 at Thu Jul 14 15:56:03 2016, MaxMem=    33554432 cpu:         0.0
 (Enter /share/sw/non-free/gaussian/g09/l301.exe)
 Standard basis: 6-31G(d) (6D, 7F)
 Ernie: Thresh=  0.10000D-02 Tol=  0.10000D-05 Strict=F.
 There are    14 symmetry adapted cartesian basis functions of AG  symmetry.
 There are     2 symmetry adapted cartesian basis functions of B1G symmetry.
 There are     4 symmetry adapted cartesian basis functions of B2G symmetry.
 There are     4 symmetry adapted cartesian basis functions of B3G symmetry.
 There are     1 symmetry adapted cartesian basis functions of AU  symmetry.
 There are    10 symmetry adapted cartesian basis functions of B1U symmetry.
 There are     5 symmetry adapted cartesian basis functions of B2U symmetry.
 There are     5 symmetry adapted cartesian basis functions of B3U symmetry.
 There are    14 symmetry adapted basis functions of AG  symmetry.
 There are     2 symmetry adapted basis functions of B1G symmetry.
 There are     4 symmetry adapted basis functions of B2G symmetry.
 There are     4 symmetry adapted basis functions of B3G symmetry.
 There are     1 symmetry adapted basis functions of AU  symmetry.
 There are    10 symmetry adapted basis functions of B1U symmetry.
 There are     5 symmetry adapted basis functions of B2U symmetry.
 There are     5 symmetry adapted basis functions of B3U symmetry.
    45 basis functions,    84 primitive gaussians,    45 cartesian basis functions
    11 alpha electrons       11 beta electrons
       nuclear repulsion energy        59.2487400542 Hartrees.
 IExCor=    0 DFT=F Ex=HF Corr=None ExCW=0 ScaHFX=  1.000000
 ScaDFX=  1.000000  1.000000  1.000000  1.000000 ScalE2=  1.000000  1.000000
 IRadAn=      0 IRanWt=     -1 IRanGd=            0 ICorTp=0 IEmpDi=  4
 NAtoms=    3 NActive=    3 NUniq=    2 SFac= 2.25D+00 NAtFMM=   60 NAOKFM=F Big=F
 Integral buffers will be    131072 words long.
 Raffenetti 1 integral format.
 Two-electron integral symmetry is turned on.
 Leave Link  301 at Thu Jul 14 15:56:03 2016, MaxMem=    33554432 cpu:         0.0
 (Enter /share/sw/non-free/gaussian/g09/l302.exe)
 NPDir=0 NMtPBC=     1 NCelOv=     1 NCel=       1 NClECP=     1 NCelD=      1
         NCelK=      1 NCelE2=     1 NClLst=     1 CellRange=     0.0.
 One-electron integrals computed using PRISM.
 One-electron integral symmetry used in STVInt
 NBasis=    45 RedAO= T EigKep=  4.38D-03  NBF=    14     2     4     4     1    10     5     5
 NBsUse=    45 1.00D-06 EigRej= -1.00D+00 NBFU=    14     2     4     4     1    10     5     5
 Leave Link  302 at Thu Jul 14 15:56:03 2016, MaxMem=    33554432 cpu:         0.1
 (Enter /share/sw/non-free/gaussian/g09/l303.exe)
 DipDrv:  MaxL=1.
 Leave Link  303 at Thu Jul 14 15:56:03 2016, MaxMem=    33554432 cpu:         0.0
 (Enter /share/sw/non-free/gaussian/g09/l401.exe)
 Initial guess from the checkpoint file:  "/scratch/users/ekwan16/numfreq/Gau-8749.chk"
 B after Tr=     0.000000    0.000000    0.000000
         Rot=    1.000000    0.000000    0.000000    0.000000 Ang=   0.00 deg.
 Guess basis will be translated and rotated to current coordinates.
 JPrj=2 DoOrth=T DoCkMO=T.
 Initial guess orbital symmetries:
       Occupied  (SGU) (SGG) (SGG) (SGG) (SGU) (SGG) (SGU) (PIU)
                 (PIU) (PIG) (PIG)
       Virtual   (SGG) (SGG) (SGG) (SGG) (DLTG) (SGG) (DLTG) (SGG)
                 (SGG) (SGG) (DLTG) (DLTG) (PIG) (PIG) (PIG) (PIG)
                 (PIG) (PIG) (DLTU) (SGU) (SGU) (SGU) (SGU) (DLTU)
                 (SGU) (SGU) (PIU) (PIU) (PIU) (PIU) (PIU) (PIU)
                 (PIU) (PIU)
 The electronic state of the initial guess is 1-SGG.
 Leave Link  401 at Thu Jul 14 15:56:03 2016, MaxMem=    33554432 cpu:         0.1
 (Enter /share/sw/non-free/gaussian/g09/l502.exe)
 Closed shell SCF:
 Using DIIS extrapolation, IDIIS=  1040.
 Integral symmetry usage will be decided dynamically.
 Keep R1 ints in memory in symmetry-blocked form, NReq=1398067.
 IVT=       25385 IEndB=       25385 NGot=    33554432 MDV=    33448410
 LenX=    33448410 LenY=    33445944
 Requested convergence on RMS density matrix=1.00D-08 within 128 cycles.
 Requested convergence on MAX density matrix=1.00D-06.
 Requested convergence on             energy=1.00D-06.
 No special actions if energy rises.
 FoFCou: FMM=F IPFlag=           0 FMFlag=           0 FMFlg1=           0
         NFxFlg=           0 DoJE=F BraDBF=F KetDBF=F FulRan=T
         wScrn=  0.000000 ICntrl=     600 IOpCl=  0 I1Cent=           0 NGrid=           0
         NMat0=    1 NMatS0=   1035 NMatT0=    0 NMatD0=    1 NMtDS0=    0 NMtDT0=    0
 Petite list used in FoFCou.

 Cycle   1  Pass 1  IDiag  1:
 E= -187.634162429168    
 DIIS: error= 6.16D-04 at cycle   1 NSaved=   1.
 NSaved= 1 IEnMin= 1 EnMin= -187.634162429168     IErMin= 1 ErrMin= 6.16D-04
 ErrMax= 6.16D-04  0.00D+00 EMaxC= 1.00D-01 BMatC= 1.26D-05 BMatP= 1.26D-05
 IDIUse=3 WtCom= 9.94D-01 WtEn= 6.16D-03
 Coeff-Com:  0.100D+01
 Coeff-En:   0.100D+01
 Coeff:      0.100D+01
 Gap=     0.926 Goal=   None    Shift=    0.000
 RMSDP=9.44D-05 MaxDP=6.40D-04              OVMax= 9.76D-04

 Cycle   2  Pass 1  IDiag  1:
 E= -187.634174989437     Delta-E=       -0.000012560269 Rises=F Damp=F
 DIIS: error= 1.33D-04 at cycle   2 NSaved=   2.
 NSaved= 2 IEnMin= 2 EnMin= -187.634174989437     IErMin= 2 ErrMin= 1.33D-04
 ErrMax= 1.33D-04  0.00D+00 EMaxC= 1.00D-01 BMatC= 1.01D-06 BMatP= 1.26D-05
 IDIUse=3 WtCom= 9.99D-01 WtEn= 1.33D-03
 Coeff-Com:  0.707D-01 0.929D+00
 Coeff-En:   0.000D+00 0.100D+01
 Coeff:      0.706D-01 0.929D+00
 Gap=     0.771 Goal=   None    Shift=    0.000
 RMSDP=2.85D-05 MaxDP=2.46D-04 DE=-1.26D-05 OVMax= 3.46D-04

 Cycle   3  Pass 1  IDiag  1:
 E= -187.634176018354     Delta-E=       -0.000001028917 Rises=F Damp=F
 DIIS: error= 7.51D-05 at cycle   3 NSaved=   3.
 NSaved= 3 IEnMin= 3 EnMin= -187.634176018354     IErMin= 3 ErrMin= 7.51D-05
 ErrMax= 7.51D-05  0.00D+00 EMaxC= 1.00D-01 BMatC= 1.20D-07 BMatP= 1.01D-06
 IDIUse=1 WtCom= 1.00D+00 WtEn= 0.00D+00
 Coeff-Com: -0.592D-01 0.383D-01 0.102D+01
 Coeff:     -0.592D-01 0.383D-01 0.102D+01
 Gap=     0.771 Goal=   None    Shift=    0.000
 RMSDP=1.07D-05 MaxDP=1.17D-04 DE=-1.03D-06 OVMax= 2.04D-04

 Cycle   4  Pass 1  IDiag  1:
 E= -187.634176177358     Delta-E=       -0.000000159004 Rises=F Damp=F
 DIIS: error= 2.42D-05 at cycle   4 NSaved=   4.
 NSaved= 4 IEnMin= 4 EnMin= -187.634176177358     IErMin= 4 ErrMin= 2.42D-05
 ErrMax= 2.42D-05  0.00D+00 EMaxC= 1.00D-01 BMatC= 1.52D-08 BMatP= 1.20D-07
 IDIUse=1 WtCom= 1.00D+00 WtEn= 0.00D+00
 Coeff-Com: -0.182D-01-0.614D-01 0.206D+00 0.874D+00
 Coeff:     -0.182D-01-0.614D-01 0.206D+00 0.874D+00
 Gap=     0.771 Goal=   None    Shift=    0.000
 RMSDP=3.44D-06 MaxDP=2.99D-05 DE=-1.59D-07 OVMax= 5.11D-05

 Cycle   5  Pass 1  IDiag  1:
 E= -187.634176197172     Delta-E=       -0.000000019815 Rises=F Damp=F
 DIIS: error= 1.03D-05 at cycle   5 NSaved=   5.
 NSaved= 5 IEnMin= 5 EnMin= -187.634176197172     IErMin= 5 ErrMin= 1.03D-05
 ErrMax= 1.03D-05  0.00D+00 EMaxC= 1.00D-01 BMatC= 2.01D-09 BMatP= 1.52D-08
 IDIUse=1 WtCom= 1.00D+00 WtEn= 0.00D+00
 Coeff-Com:  0.861D-02-0.112D-02-0.162D+00 0.773D-01 0.108D+01
 Coeff:      0.861D-02-0.112D-02-0.162D+00 0.773D-01 0.108D+01
 Gap=     0.771 Goal=   None    Shift=    0.000
 RMSDP=1.46D-06 MaxDP=1.58D-05 DE=-1.98D-08 OVMax= 2.44D-05

 Cycle   6  Pass 1  IDiag  1:
 E= -187.634176199449     Delta-E=       -0.000000002276 Rises=F Damp=F
 DIIS: error= 1.12D-06 at cycle   6 NSaved=   6.
 NSaved= 6 IEnMin= 6 EnMin= -187.634176199449     IErMin= 6 ErrMin= 1.12D-06
 ErrMax= 1.12D-06  0.00D+00 EMaxC= 1.00D-01 BMatC= 2.42D-11 BMatP= 2.01D-09
 IDIUse=1 WtCom= 1.00D+00 WtEn= 0.00D+00
 Coeff-Com: -0.141D-02 0.199D-02 0.281D-01-0.248D-01-0.285D+00 0.128D+01
 Coeff:     -0.141D-02 0.199D-02 0.281D-01-0.248D-01-0.285D+00 0.128D+01
 Gap=     0.771 Goal=   None    Shift=    0.000
 RMSDP=1.78D-07 MaxDP=2.09D-06 DE=-2.28D-09 OVMax= 2.06D-06

 Cycle   7  Pass 1  IDiag  1:
 E= -187.634176199486     Delta-E=       -0.000000000037 Rises=F Damp=F
 DIIS: error= 1.15D-07 at cycle   7 NSaved=   7.
 NSaved= 7 IEnMin= 7 EnMin= -187.634176199486     IErMin= 7 ErrMin= 1.15D-07
 ErrMax= 1.15D-07  0.00D+00 EMaxC= 1.00D-01 BMatC= 3.66D-13 BMatP= 2.42D-11
 IDIUse=1 WtCom= 1.00D+00 WtEn= 0.00D+00
 Coeff-Com:  0.165D-03-0.261D-03-0.365D-02 0.568D-02 0.377D-01-0.259D+00
 Coeff-Com:  0.122D+01
 Coeff:      0.165D-03-0.261D-03-0.365D-02 0.568D-02 0.377D-01-0.259D+00
 Coeff:      0.122D+01
 Gap=     0.771 Goal=   None    Shift=    0.000
 RMSDP=3.91D-08 MaxDP=3.49D-07 DE=-3.71D-11 OVMax= 3.12D-07

 Cycle   8  Pass 1  IDiag  1:
 E= -187.634176199487     Delta-E=       -0.000000000001 Rises=F Damp=F
 DIIS: error= 6.88D-09 at cycle   8 NSaved=   8.
 NSaved= 8 IEnMin= 8 EnMin= -187.634176199487     IErMin= 8 ErrMin= 6.88D-09
 ErrMax= 6.88D-09  0.00D+00 EMaxC= 1.00D-01 BMatC= 1.70D-15 BMatP= 3.66D-13
 IDIUse=1 WtCom= 1.00D+00 WtEn= 0.00D+00
 Coeff-Com: -0.620D-05 0.689D-05 0.174D-03-0.337D-03-0.167D-02 0.171D-01
 Coeff-Com: -0.155D+00 0.114D+01
 Coeff:     -0.620D-05 0.689D-05 0.174D-03-0.337D-03-0.167D-02 0.171D-01
 Coeff:     -0.155D+00 0.114D+01
 Gap=     0.771 Goal=   None    Shift=    0.000
 RMSDP=3.59D-09 MaxDP=4.21D-08 DE=-1.34D-12 OVMax= 3.40D-08

 SCF Done:  E(RHF) =  -187.634176199     A.U. after    8 cycles
            NFock=  8  Conv=0.36D-08     -V/T= 2.0028
 KE= 1.871100073887D+02 PE=-5.611625034606D+02 EE= 1.271695798182D+02
 Leave Link  502 at Thu Jul 14 15:56:03 2016, MaxMem=    33554432 cpu:         0.2
 (Enter /share/sw/non-free/gaussian/g09/l701.exe)
 Compute integral first derivatives.
 ... and contract with generalized density number  0.
 DipInt: DoE/N= T T RetVal/Mat= T F Init=T NMatP=  1 IDeriv=0 Min/MaxMlt=  1  1
 Entering OneElI...
 Multipole integrals L=1 to 1 MinM= 0 MaxM= 0.
 Requested accuracy = 0.1000D-12
 PrsmSu:  NPrtUS=   1 ThrOK=F IAlg=1 NPAlg=1 LenDen=           0.
 Prism:   IPart=     0 DynPar=F LinDyn=F Incr=           1.
 PRISM was handed    33538773 working-precision words and    77 shell-pairs
 IPart=  0 NShTot=          77 NBatch=          14 AvBLen=         5.5
 PrSmSu:  NxtVal=              2.
 Entering OneElI...
 Calculate overlap and kinetic energy integrals
    NBasis =  45  MinDer = 1  MaxDer = 1
 Requested accuracy = 0.1000D-12
 PrsmSu:  NPrtUS=   1 ThrOK=F IAlg=1 NPAlg=1 LenDen=           0.
 Prism:   IPart=     0 DynPar=F LinDyn=F Incr=           1.
 PRISM was handed    33535998 working-precision words and    78 shell-pairs
 IPart=  0 NShTot=          78 NBatch=          14 AvBLen=         5.6
 PrSmSu:  NxtVal=              2.
 Entering OneElI...
 Calculate potential energy integrals
    NBasis =  45  MinDer = 1  MaxDer = 1
 Requested accuracy = 0.1000D-12
 PrsmSu:  NPrtUS=   1 ThrOK=F IAlg=1 NPAlg=1 LenDen=           0.
 Prism:   IPart=     0 DynPar=F LinDyn=F Incr=           2.
 PRISM was handed    33538551 working-precision words and    77 shell-pairs
 IPart=  0 NShTot=         231 NBatch=          77 AvBLen=         3.0
 PrSmSu:  NxtVal=              3.
 l701 out
 I=    0 X=   0.000000000000D+00 Y=   0.000000000000D+00 Z=   0.000000000000D+00
 I=    1 X=   0.000000000000D+00 Y=   0.000000000000D+00 Z=   0.000000000000D+00
 I=    2 X=   0.000000000000D+00 Y=   0.000000000000D+00 Z=   1.861698209636D+01
 I=    3 X=   0.000000000000D+00 Y=   0.000000000000D+00 Z=  -1.861698209636D+01
 Leave Link  701 at Thu Jul 14 15:56:03 2016, MaxMem=    33554432 cpu:         0.1
 (Enter /share/sw/non-free/gaussian/g09/l702.exe)
 L702 exits ... SP integral derivatives will be done elsewhere.
 Leave Link  702 at Thu Jul 14 15:56:03 2016, MaxMem=    33554432 cpu:         0.0
 (Enter /share/sw/non-free/gaussian/g09/l703.exe)
 Compute integral first derivatives, UseDBF=F ICtDFT=           0.
 Integral derivatives from FoFJK, PRISM(SPDF).
 ICntrl=      2127.
 Calling FoFJK, ICntrl=      2127 FMM=F ISym2X=1 I1Cent= 0 IOpClX= 0 NMat=1 NMatS=1 NMatT=0.
 FoFJK:  IHMeth= 1 ICntrl=    2127 DoSepK=F KAlg= 0 I1Cent=   0 FoldK=F
 IRaf=         0 NMat=   1 IRICut=       1 DoRegI=T DoRafI=F ISym2E= 1.
 FoFCou: FMM=F IPFlag=           0 FMFlag=      100000 FMFlg1=         800
         NFxFlg=           0 DoJE=F BraDBF=F KetDBF=F FulRan=T
         wScrn=  0.000000 ICntrl=    2127 IOpCl=  0 I1Cent=           0 NGrid=           0
         NMat0=    1 NMatS0=      1 NMatT0=    0 NMatD0=    1 NMtDS0=    0 NMtDT0=    0
 Petite list used in FoFCou.
 FoFCou:  KetSym=F NOpSet=  8 NOpAb=8 NOp=  8.
 FoFCou:  CnvScl= 1.00D+00 Thresh= 1.00D-10 IAcrcy=      10.
 PrismS was handed    33537811 working-precision words and    77 shell-pairs
 FoFCou: LinMIO=F DoNuc=F BraDBF=F KetDBF=F HaveP=T PDBF=F HaveZ=T HaveW=F
         NIJTC =       6 NIJTAt=       0 NIJTCD=       0 NIJTT =       6
         IJTBeg=       1 IJTEnd=       6 KLTBeg=       1 KLTEnd=       6
         IPTBeg=       1 IPTEnd=       6 IPTBCv=       1 IPTECv=       6
         IZTBeg=       1 IZTEnd=       6 IZTBCv=       1 IZTECv=       6
         IWTBeg=       7 IWTEnd=       6 IWTBCv=       7 IWTECv=       6
         INTBeg=       1 INTEnd=       0 IFTBCv=       1 IFTECv=       6
 NCel replicated for PrismC:     1
 CoulSu:  IncDef=  1024 NBBP=           3003 NTPThr=   100 NPartT=    1 Incr=          30 LDynOK=F.
 CoulSu:  NPrtUS=   1 ThrOK=F IAlg=1 NPAlg=1 LenDen=           0 LWGrdD=           0 DoCopy=F.
 Enter PrismC: JobTyp=21 DoJE=F Cont=F.
 PrismC:  IPart=     0 DynPar=F LinDyn=F Incr=          30 UseFst=F UseS4=T IGathr=2.
 PrismC was handed    33537705 working-precision words and    77 shell-pairs
 IPart=  0 NShTot=        1549 NShNF=        1549 NShFF=           0 NBatch=         147 AvBLen=        10.5
 CoulSu:  NxtVal=             31.
 Forces at end of L703
 I=    0 X=   0.000000000000D+00 Y=   0.000000000000D+00 Z=   0.000000000000D+00
 I=    1 X=   0.000000000000D+00 Y=   0.000000000000D+00 Z=   0.000000000000D+00
 I=    2 X=   0.000000000000D+00 Y=   0.000000000000D+00 Z=  -8.139396523532D-05
 I=    3 X=   0.000000000000D+00 Y=   0.000000000000D+00 Z=   8.139396523177D-05
 Leave Link  703 at Thu Jul 14 15:56:04 2016, MaxMem=    33554432 cpu:         0.2
 (Enter /share/sw/non-free/gaussian/g09/l716.exe)
 FrcOut:
 IF    =    74 IFX   =    83 IFXYZ =    92
 IFFX  =   101 IFFFX =   101 IFLen =     9
 IFFLen=     0 IFFFLn=     0 IEDerv=   101
 LEDerv=   485 IFroze=   713 ICStrt=  4895
 Dipole        =-1.33857012D-16 0.00000000D+00 0.00000000D+00
 Forces in standard orientation:
 -------------------------------------------------------------------
 Center     Atomic                   Forces (Hartrees/Bohr)
 Number     Number              X              Y              Z
 -------------------------------------------------------------------
      1        6           0.000000000    0.000000000    0.000000000
      2        8           0.000000000    0.000000000   -0.000081394
      3        8           0.000000000    0.000000000    0.000081394
 -------------------------------------------------------------------
 ***** Axes restored to original set *****
 Rotating derivatives, DoTrsp=F IDiff=-1 LEDeriv=    484 LFDPrp=       0 LDFDPr=       0.
 -------------------------------------------------------------------
 Center     Atomic                   Forces (Hartrees/Bohr)
 Number     Number              X              Y              Z
 -------------------------------------------------------------------
      1        6           0.000000000    0.000000000    0.000000000
      2        8           0.000081394    0.000000000    0.000000000
      3        8          -0.000081394    0.000000000    0.000000000
 -------------------------------------------------------------------
 Cartesian Forces:  Max     0.000081394 RMS     0.000038369
 Final forces over variables, Energy=-1.87634176D+02:
 -7.54196555D-03-7.54196555D-03-3.52563722D-15-5.70951251D-16
 Leave Link  716 at Thu Jul 14 15:56:04 2016, MaxMem=    33554432 cpu:         0.0
 (Enter /share/sw/non-free/gaussian/g09/l103.exe)

 GradGradGradGradGradGradGradGradGradGradGradGradGradGradGradGradGradGrad
 Berny optimization.
 Using GEDIIS/GDIIS optimizer.
 Red2BG is reusing G-inverse.
 Internal  Forces:  Max     0.000081394 RMS     0.000057554
 Search for a local minimum.
 Step number   3 out of a maximum of   20
 All quantities printed in internal units (Hartrees-Bohrs-Radians)
 RMS Force = .57554D-04 SwitMx=.10000D-02 MixMth= 2
 Mixed Optimization -- En-DIIS/RFO-DIIS
 Update second derivatives using D2CorX and points    1    2    3
 DE= -4.13D-05 DEPred=-5.49D-05 R= 7.52D-01
 TightC=F SS=  1.41D+00  RLast= 7.80D-03 DXNew= 8.4853D-01 2.3402D-02
 Trust test= 7.52D-01 RLast= 7.80D-03 DXMaxT set to 5.05D-01
 The second derivative matrix:
                          R1        R2        A1        A2
           R1           1.09209
           R2           0.29000   1.09209
           A1           0.00000   0.00000   0.03565
           A2           0.00000   0.00000   0.00000   0.03565
 ITU=  1  1  0
 Use linear search instead of GDIIS.
     Eigenvalues ---    0.03565   0.03565   0.80209   1.38209
 RFO step:  Lambda= 0.00000000D+00 EMin= 3.56487685D-02
 Quartic linear search produced a step of -0.01057.
 Iteration  1 RMS(Cart)=  0.00004123 RMS(Int)=  0.00000000
 Iteration  2 RMS(Cart)=  0.00000000 RMS(Int)=  0.00000000
 ITry= 1 IFail=0 DXMaxC= 5.83D-05 DCOld= 1.00D+10 DXMaxT= 5.05D-01 DXLimC= 3.00D+00 Rises=F
 ClnCor:  largest displacement from symmetrization is 2.90D-13 for atom     1.
 Variable       Old X    -DE/DX   Delta X   Delta X   Delta X     New X
                                 (Linear)    (Quad)   (Total)
    R1        2.16038   0.00008   0.00006   0.00000   0.00006   2.16044
    R2        2.16038   0.00008   0.00006   0.00000   0.00006   2.16044
    A1        3.14159   0.00000   0.00000   0.00000   0.00000   3.14159
    A2        3.14159   0.00000   0.00000   0.00000   0.00000   3.14159
         Item               Value     Threshold  Converged?
 Maximum Force            0.000081     0.000450     YES
 RMS     Force            0.000058     0.000300     YES
 Maximum Displacement     0.000058     0.001800     YES
 RMS     Displacement     0.000041     0.001200     YES
 Predicted change in Energy=-4.792998D-09
 Optimization completed.
    -- Stationary point found.
                           ----------------------------
                           !   Optimized Parameters   !
                           ! (Angstroms and Degrees)  !
 --------------------------                            --------------------------
 ! Name  Definition              Value          Derivative Info.                !
 --------------------------------------------------------------------------------
 ! R1    R(1,2)                  1.1432         -DE/DX =    0.0001              !
 ! R2    R(1,3)                  1.1432         -DE/DX =    0.0001              !
 ! A1    L(2,1,3,-2,-1)        180.0            -DE/DX =    0.0                 !
 ! A2    L(2,1,3,-3,-2)        180.0            -DE/DX =    0.0                 !
 --------------------------------------------------------------------------------
 Lowest energy point so far.  Saving SCF results.
 GradGradGradGradGradGradGradGradGradGradGradGradGradGradGradGradGradGrad

 Largest change from initial coordinates is atom    2       0.115 Angstoms.
 Leave Link  103 at Thu Jul 14 15:56:04 2016, MaxMem=    33554432 cpu:         0.0
 (Enter /share/sw/non-free/gaussian/g09/l202.exe)
                          Input orientation:                          
 ---------------------------------------------------------------------
 Center     Atomic      Atomic             Coordinates (Angstroms)
 Number     Number       Type             X           Y           Z
 ---------------------------------------------------------------------
      1          6           0       -0.916335    0.073041    0.000000
      2          8           0        0.226891    0.073041    0.000000
      3          8           0       -2.059560    0.073041    0.000000
 ---------------------------------------------------------------------
                    Distance matrix (angstroms):
                    1          2          3
     1  C    0.000000
     2  O    1.143226   0.000000
     3  O    1.143226   2.286451   0.000000
 Stoichiometry    CO2
 Framework group  D*H[O(C),C*(O.O)]
 Deg. of freedom     1
 Full point group                 D*H     NOp   8
 RotChk:  IX=0 Diff= 8.66D-17
 Largest Abelian subgroup         D2H     NOp   8
 Largest concise Abelian subgroup C2      NOp   2
                         Standard orientation:                         
 ---------------------------------------------------------------------
 Center     Atomic      Atomic             Coordinates (Angstroms)
 Number     Number       Type             X           Y           Z
 ---------------------------------------------------------------------
      1          6           0        0.000000    0.000000    0.000000
      2          8           0        0.000000    0.000000    1.143226
      3          8           0        0.000000    0.000000   -1.143226
 ---------------------------------------------------------------------
 Rotational constants (GHZ):      0.0000000     12.0876343     12.0876343
 Leave Link  202 at Thu Jul 14 15:56:04 2016, MaxMem=    33554432 cpu:         0.0
 (Enter /share/sw/non-free/gaussian/g09/l601.exe)
 Copying SCF densities to generalized density rwf, IOpCl= 0 IROHF=0.

 **********************************************************************

            Population analysis using the SCF density.

 **********************************************************************

 Orbital symmetries:
       Occupied  (SGU) (SGG) (SGG) (SGG) (SGU) (SGG) (SGU) (PIU)
                 (PIU) (PIG) (PIG)
       Virtual   (PIU) (PIU) (SGG) (SGU) (PIU) (PIU) (SGG) (SGU)
                 (SGG) (PIG) (PIG) (PIU) (PIU) (SGU) (SGG) (DLTG)
                 (DLTG) (PIG) (PIG) (DLTU) (DLTU) (SGU) (DLTG)
                 (DLTG) (PIU) (PIU) (SGG) (SGU) (PIG) (PIG) (SGG)
                 (SGG) (SGU) (SGG)
 The electronic state is 1-SGG.
 Alpha  occ. eigenvalues --  -20.65783 -20.65781 -11.46209  -1.54204  -1.48693
 Alpha  occ. eigenvalues --   -0.79260  -0.73925  -0.71910  -0.71910  -0.53995
 Alpha  occ. eigenvalues --   -0.53995
 Alpha virt. eigenvalues --    0.23062   0.23062   0.26638   0.51003   0.66339
 Alpha virt. eigenvalues --    0.66339   0.84299   0.98305   0.99234   1.14704
 Alpha virt. eigenvalues --    1.14704   1.33113   1.33113   1.45475   1.61578
 Alpha virt. eigenvalues --    1.63480   1.63480   1.70445   1.70445   2.01267
 Alpha virt. eigenvalues --    2.01267   2.08926   2.35737   2.35737   2.49070
 Alpha virt. eigenvalues --    2.49070   3.14675   3.32791   3.35185   3.35185
[...]
 (Enter /share/sw/non-free/gaussian/g09/l601.exe)
 Copying SCF densities to generalized density rwf, IOpCl= 0 IROHF=0.

 **********************************************************************

            Population analysis using the SCF density.

 **********************************************************************

 Orbital symmetries:
       Occupied  (SGU) (SGG) (SGG) (SGG) (SGU) (SGG) (SGU) (PIU)
                 (PIU) (PIG) (PIG)
       Virtual   (PIU) (PIU) (SGG) (SGU) (PIU) (PIU) (SGG) (SGU)
                 (SGG) (PIG) (PIG) (PIU) (PIU) (SGU) (SGG) (DLTG)
                 (DLTG) (PIG) (PIG) (DLTU) (DLTU) (SGU) (DLTG)
                 (DLTG) (PIU) (PIU) (SGG) (SGU) (PIG) (PIG) (SGG)
                 (SGG) (SGU) (SGG)
 The electronic state is 1-SGG.
 Alpha  occ. eigenvalues --  -20.65783 -20.65781 -11.46209  -1.54204  -1.48693
 Alpha  occ. eigenvalues --   -0.79260  -0.73925  -0.71910  -0.71910  -0.53995
 Alpha  occ. eigenvalues --   -0.53995
 Alpha virt. eigenvalues --    0.23062   0.23062   0.26638   0.51003   0.66339
 Alpha virt. eigenvalues --    0.66339   0.84299   0.98305   0.99234   1.14704
 Alpha virt. eigenvalues --    1.14704   1.33113   1.33113   1.45475   1.61578
 Alpha virt. eigenvalues --    1.63480   1.63480   1.70445   1.70445   2.01267
 Alpha virt. eigenvalues --    2.01267   2.08926   2.35737   2.35737   2.49070
 Alpha virt. eigenvalues --    2.49070   3.14675   3.32791   3.35185   3.35185
 Alpha virt. eigenvalues --    3.48931   4.18099   4.90153   4.90713
          Condensed to atoms (all electrons):
               1          2          3
     1  C    3.845630   0.630946   0.630946
     2  O    0.630946   7.841167  -0.025874
     3  O    0.630946  -0.025874   7.841167
 Mulliken charges:
               1
     1  C    0.892478
     2  O   -0.446239
     3  O   -0.446239
 Sum of Mulliken charges =   0.00000
 Mulliken charges with hydrogens summed into heavy atoms:
               1
     1  C    0.892478
     2  O   -0.446239
     3  O   -0.446239
 APT charges:
               1
     1  C    1.515305
     2  O   -0.757652
     3  O   -0.757652
 Sum of APT charges =   0.00000
 APT charges with hydrogens summed into heavy atoms:
               1
     1  C    1.515305
     2  O   -0.757652
     3  O   -0.757652
 Electronic spatial extent (au):  <R**2>=            110.9764
 Charge=              0.0000 electrons
 Dipole moment (field-independent basis, Debye):
    X=              0.0000    Y=              0.0000    Z=              0.0000  Tot=              0.0000
 Quadrupole moment (field-independent basis, Debye-Ang):
   XX=            -14.4556   YY=            -14.4556   ZZ=            -19.9140
   XY=              0.0000   XZ=              0.0000   YZ=              0.0000
 Traceless Quadrupole moment (field-independent basis, Debye-Ang):
   XX=              1.8195   YY=              1.8195   ZZ=             -3.6390
   XY=              0.0000   XZ=              0.0000   YZ=              0.0000
 Octapole moment (field-independent basis, Debye-Ang**2):
  XXX=              0.0000  YYY=              0.0000  ZZZ=              0.0000  XYY=              0.0000
  XXY=              0.0000  XXZ=              0.0000  XZZ=              0.0000  YZZ=              0.0000
  YYZ=              0.0000  XYZ=              0.0000
 Hexadecapole moment (field-independent basis, Debye-Ang**3):
 XXXX=            -10.2546 YYYY=            -10.2546 ZZZZ=            -99.4611 XXXY=              0.0000
 XXXZ=              0.0000 YYYX=              0.0000 YYYZ=              0.0000 ZZZX=              0.0000
 ZZZY=              0.0000 XXYY=             -3.4182 XXZZ=            -17.9566 YYZZ=            -17.9566
 XXYZ=              0.0000 YYXZ=              0.0000 ZZXY=              0.0000
 N-N= 5.924874005417D+01 E-N=-5.611625034800D+02  KE= 1.871100073769D+02
 Symmetry AG   KE= 1.012482906854D+02
 Symmetry B1G  KE= 1.352854379505D-33
 Symmetry B2G  KE= 4.700742986866D+00
 Symmetry B3G  KE= 4.700742986866D+00
 Symmetry AU   KE= 2.025701200697D-34
 Symmetry B1U  KE= 6.913277297392D+01
 Symmetry B2U  KE= 3.663728871922D+00
 Symmetry B3U  KE= 3.663728871922D+00
  Exact polarizability:   7.264   0.000   7.264   0.000   0.000  20.044
 Approx polarizability:   6.855   0.000   6.855   0.000   0.000  21.407
 No NMR shielding tensors so no spin-rotation constants.
 Leave Link  601 at Thu Jul 14 15:56:06 2016, MaxMem=    33554432 cpu:         0.1
 (Enter /share/sw/non-free/gaussian/g09/l701.exe)
 Compute integral second derivatives.
 ... and contract with generalized density number  0.
 Leave Link  701 at Thu Jul 14 15:56:06 2016, MaxMem=    33554432 cpu:         0.1
 (Enter /share/sw/non-free/gaussian/g09/l702.exe)
 L702 exits ... SP integral derivatives will be done elsewhere.
 Leave Link  702 at Thu Jul 14 15:56:06 2016, MaxMem=    33554432 cpu:         0.0
 (Enter /share/sw/non-free/gaussian/g09/l703.exe)
 Compute integral second derivatives, UseDBF=F ICtDFT=           0.
 Integral derivatives from FoFJK, PRISM(SPDF).
 Calling FoFJK, ICntrl=    100127 FMM=F ISym2X=1 I1Cent= 0 IOpClX= 0 NMat=1 NMatS=1 NMatT=0.
 FoFJK:  IHMeth= 1 ICntrl=  100127 DoSepK=F KAlg= 0 I1Cent=   0 FoldK=F
 IRaf=         0 NMat=   1 IRICut=       1 DoRegI=T DoRafI=F ISym2E= 1.
 FoFCou: FMM=F IPFlag=           0 FMFlag=      100000 FMFlg1=         800
         NFxFlg=           0 DoJE=F BraDBF=F KetDBF=F FulRan=T
         wScrn=  0.000000 ICntrl=  100127 IOpCl=  0 I1Cent=           0 NGrid=           0
         NMat0=    1 NMatS0=      1 NMatT0=    0 NMatD0=    1 NMtDS0=    0 NMtDT0=    0
 Petite list used in FoFCou.
 Leave Link  703 at Thu Jul 14 15:56:07 2016, MaxMem=    33554432 cpu:         0.3
 (Enter /share/sw/non-free/gaussian/g09/l716.exe)
 Dipole        =-1.33857012D-16 4.62223187D-33 3.68108322D-15
 Polarizability= 7.26430282D+00 9.87213020D-51 7.26430282D+00
                 1.06645044D-16-3.36381545D-48 2.00443500D+01
 HyperPolar    =-8.29791279D-15-9.23425884D-16-2.84305364D-15
                -2.77027765D-15 6.08574347D-15 1.82872698D-31
                 1.14647737D-14-4.55916404D-15-2.49689655D-15
                -2.68097327D-14
 Full mass-weighted force constant matrix:
 Low frequencies ---   -7.8895   -7.8895    0.0015    0.0018    0.0022  745.7078
 Low frequencies ---  745.7078 1518.6569 2585.3524
 Diagonal vibrational polarizability:
        3.3360503       3.3360503       3.9804740
 Harmonic frequencies (cm**-1), IR intensities (KM/Mole), Raman scattering
 activities (A**4/AMU), depolarization ratios for plane and unpolarized
 incident light, reduced masses (AMU), force constants (mDyne/A),
 and normal coordinates:
                      1                      2                      3
                     PIU                    PIU                    SGG
 Frequencies --    745.7078               745.7078              1518.6569
 Red. masses --     12.8774                12.8774                15.9949
 Frc consts  --      4.2190                 4.2190                21.7346
 IR Inten    --     68.9345                68.9345                 0.0000
  Atom  AN      X      Y      Z        X      Y      Z        X      Y      Z
     1   6     0.00   0.88   0.00     0.88   0.00   0.00     0.00   0.00   0.00
     2   8     0.00  -0.33   0.00    -0.33   0.00   0.00     0.00   0.00   0.71
     3   8     0.00  -0.33   0.00    -0.33   0.00   0.00     0.00   0.00  -0.71
                      4
                     SGU
 Frequencies --   2585.3524
 Red. masses --     12.8774
 Frc consts  --     50.7127
 IR Inten    --    988.6469
  Atom  AN      X      Y      Z
     1   6     0.00   0.00   0.88
     2   8     0.00   0.00  -0.33
     3   8     0.00   0.00  -0.33

 -------------------
 - Thermochemistry -
 -------------------
 Temperature   298.150 Kelvin.  Pressure   1.00000 Atm.
 Atom     1 has atomic number  6 and mass  12.00000
 Atom     2 has atomic number  8 and mass  15.99491
 Atom     3 has atomic number  8 and mass  15.99491
 Molecular mass:    43.98983 amu.
 Principal axes and moments of inertia in atomic units:
                           1         2         3
     Eigenvalues --     0.00000 149.30475 149.30475
           X            0.00000   0.70711   0.70711
           Y            0.00000   0.70711  -0.70711
           Z            1.00000   0.00000   0.00000
 This molecule is a prolate symmetric top.
 Rotational symmetry number  2.
 Rotational temperature (Kelvin)      0.58011
 Rotational constant (GHZ):          12.087634
 Zero-point vibrational energy      33468.1 (Joules/Mol)
                                    7.99906 (Kcal/Mol)
 Vibrational temperatures:   1072.91  1072.91  2185.01  3719.74
          (Kelvin)
 
 Zero-point correction=                           0.012747 (Hartree/Particle)
 Thermal correction to Energy=                    0.015304
 Thermal correction to Enthalpy=                  0.016248
 Thermal correction to Gibbs Free Energy=        -0.007893
 Sum of electronic and zero-point Energies=           -187.621429
 Sum of electronic and thermal Energies=              -187.618873
 Sum of electronic and thermal Enthalpies=            -187.617928
 Sum of electronic and thermal Free Energies=         -187.642069
 
                     E (Thermal)             CV                S
                      KCal/Mol        Cal/Mol-Kelvin    Cal/Mol-Kelvin
 Total                    9.603              6.528             50.808
 Electronic               0.000              0.000              0.000
 Translational            0.889              2.981             37.270
 Rotational               0.592              1.987             13.014
 Vibrational              8.122              1.560              0.524
                       Q            Log10(Q)             Ln(Q)
 Total Bot       0.426987D+04          3.630415          8.359339
 Total V=0       0.311717D+10          9.493761         21.860192
 Vib (Bot)       0.144891D-05         -5.838960        -13.444702
 Vib (V=0)       0.105776D+01          0.024386          0.056150
 Electronic      0.100000D+01          0.000000          0.000000
 Translational   0.114679D+08          7.059484         16.255062
 Rotational      0.256975D+03          2.409891          5.548980
 
                                                         Title Card Required
                                                             IR Spectrum
 
     2                                                    1                                                                          
     5                                                    5                                     7                                    
     8                                                    1                                     4                                    
     5                                                    9                                     6                                    
 
     X                                                                                          X                                    
     X                                                                                          X                                    
     X                                                                                          X                                    
     X                                                                                                                               
     X                                                                                                                               
     X                                                                                                                               
     X                                                                                                                               
     X                                                                                                                               
     X                                                                                                                               
     X                                                                                                                               
     X                                                                                                                               
     X                                                                                                                               
     X                                                                                                                               
     X                                                                                                                               
     X                                                                                                                               
     X                                                                                                                               
     X                                                                                                                               
     X                                                                                                                               
     X                                                                                                                               
     X                                                                                                                               
 
 ***** Axes restored to original set *****
 -------------------------------------------------------------------
 Center     Atomic                   Forces (Hartrees/Bohr)
 Number     Number              X              Y              Z
 -------------------------------------------------------------------
      1        6           0.000000000    0.000000000    0.000000000
      2        8           0.000081394    0.000000000    0.000000000
      3        8          -0.000081394    0.000000000    0.000000000
 -------------------------------------------------------------------
 Cartesian Forces:  Max     0.000081394 RMS     0.000038369
 Force constants in Cartesian coordinates: 
                1             2             3             4             5 
      1  0.220735D+01
      2  0.000000D+00  0.183641D+00
      3  0.000000D+00  0.000000D+00  0.183641D+00
      4 -0.110368D+01  0.000000D+00  0.000000D+00  0.124985D+01
      5  0.000000D+00 -0.918205D-01  0.000000D+00  0.000000D+00  0.458914D-01
      6  0.000000D+00  0.000000D+00 -0.918205D-01  0.000000D+00  0.000000D+00
      7 -0.110368D+01  0.000000D+00  0.000000D+00 -0.146173D+00  0.000000D+00
      8  0.000000D+00 -0.918205D-01  0.000000D+00  0.000000D+00  0.459291D-01
      9  0.000000D+00  0.000000D+00 -0.918205D-01  0.000000D+00  0.000000D+00
                6             7             8             9 
      6  0.458914D-01
      7  0.000000D+00  0.124985D+01
      8  0.000000D+00  0.000000D+00  0.458914D-01
      9  0.459291D-01  0.000000D+00  0.000000D+00  0.458914D-01
 FormGI is forming the generalized inverse of G from B-inverse, IUseBI=4.
 Force constants in internal coordinates: 
                1             2             3             4 
      1  0.124985D+01
      2  0.146173D+00  0.124985D+01
      3  0.000000D+00  0.000000D+00  0.214363D+00
      4  0.000000D+00  0.000000D+00  0.000000D+00  0.214363D+00
 Leave Link  716 at Thu Jul 14 15:56:07 2016, MaxMem=    33554432 cpu:         0.0
 (Enter /share/sw/non-free/gaussian/g09/l103.exe)

 GradGradGradGradGradGradGradGradGradGradGradGradGradGradGradGradGradGrad
 Berny optimization.
 Red2BG is reusing G-inverse.
 Internal  Forces:  Max     0.000081394 RMS     0.000057554
 Search for a local minimum.
 Step number   1 out of a maximum of    2
 All quantities printed in internal units (Hartrees-Bohrs-Radians)
 Second derivative matrix not updated -- analytic derivatives used.
 The second derivative matrix:
                          R1        R2        A1        A2
           R1           1.24985
           R2           0.14617   1.24985
           A1           0.00000   0.00000   0.21436
           A2           0.00000   0.00000   0.00000   0.21436
 ITU=  0
     Eigenvalues ---    0.21436   0.21436   1.10368   1.39602
 Angle between quadratic step and forces=   0.00 degrees.
 Linear search not attempted -- first point.
 Iteration  1 RMS(Cart)=  0.00004123 RMS(Int)=  0.00000000
 Iteration  2 RMS(Cart)=  0.00000000 RMS(Int)=  0.00000001
 ITry= 1 IFail=0 DXMaxC= 5.83D-05 DCOld= 1.00D+10 DXMaxT= 3.00D-01 DXLimC= 3.00D+00 Rises=F
 ClnCor:  largest displacement from symmetrization is 3.71D-14 for atom     1.
 Variable       Old X    -DE/DX   Delta X   Delta X   Delta X     New X
                                 (Linear)    (Quad)   (Total)
    R1        2.16038   0.00008   0.00000   0.00006   0.00006   2.16044
    R2        2.16038   0.00008   0.00000   0.00006   0.00006   2.16044
    A1        3.14159   0.00000   0.00000   0.00000   0.00000   3.14159
    A2        3.14159   0.00000   0.00000   0.00000   0.00000   3.14159
         Item               Value     Threshold  Converged?
 Maximum Force            0.000081     0.000450     YES
 RMS     Force            0.000058     0.000300     YES
 Maximum Displacement     0.000058     0.001800     YES
 RMS     Displacement     0.000041     0.001200     YES
 Predicted change in Energy=-4.745602D-09
 Optimization completed.
    -- Stationary point found.
                           ----------------------------
                           !   Optimized Parameters   !
                           ! (Angstroms and Degrees)  !
 --------------------------                            --------------------------
 ! Name  Definition              Value          Derivative Info.                !
 --------------------------------------------------------------------------------
 ! R1    R(1,2)                  1.1432         -DE/DX =    0.0001              !
 ! R2    R(1,3)                  1.1432         -DE/DX =    0.0001              !
 ! A1    L(2,1,3,-2,-1)        180.0            -DE/DX =    0.0                 !
 ! A2    L(2,1,3,-3,-2)        180.0            -DE/DX =    0.0                 !
 --------------------------------------------------------------------------------
 GradGradGradGradGradGradGradGradGradGradGradGradGradGradGradGradGradGrad

 Leave Link  103 at Thu Jul 14 15:56:07 2016, MaxMem=    33554432 cpu:         0.0
 (Enter /share/sw/non-free/gaussian/g09/l9999.exe)

 Test job not archived.
 1\1\GINC-SHERLOCK-LN04\Freq\RHF\6-31G(d)\C1O2\EKWAN16\14-Jul-2016\0\\#
 P Geom=AllCheck Guess=TCheck SCRF=Check Test GenChk RHF/6-31G(d) Freq\
 \Title Card Required\\0,1\C,-0.91633461,0.07304117,0.\O,0.2268910964,0
 .07304117,0.\O,-2.0595603164,0.07304117,0.\\Version=ES64L-G09RevD.01\S
 tate=1-SGG\HF=-187.6341762\RMSD=1.386e-10\RMSF=3.837e-05\ZeroPoint=0.0
 127473\Thermal=0.0153035\Dipole=0.,0.,0.\DipoleDeriv=2.9748523,0.,0.,0
 .,0.7855308,0.,0.,0.,0.7855308,-1.4874261,0.,0.,0.,-0.3927654,0.,0.,0.
 ,-0.3927654,-1.4874261,0.,0.,0.,-0.3927654,0.,0.,0.,-0.3927654\Polar=2
 0.04435,0.,7.2643028,0.,0.,7.2643028\HyperPolar=0.,0.,0.,0.,0.,0.,0.,0
 .,0.,0.\PG=D*H [O(C1),C*(O1.O1)]\NImag=0\\2.20735323,0.,0.18364102,0.,
 0.,0.18364102,-1.10367661,0.,0.,1.24985002,0.,-0.09182051,0.,0.,0.0458
 9142,0.,0.,-0.09182051,0.,0.,0.04589142,-1.10367661,0.,0.,-0.14617340,
 0.,0.,1.24985002,0.,-0.09182051,0.,0.,0.04592909,0.,0.,0.04589142,0.,0
 .,-0.09182051,0.,0.,0.04592909,0.,0.,0.04589142\\0.,0.,0.,-0.00008139,
 0.,0.,0.00008139,0.,0.\\\@


 NATURE GIVES TO EVERY TIME AND SEASON SOME BEAUTY OF ITS OWN.

                                                    --DICKENS
 Job cpu time:       0 days  0 hours  0 minutes  2.2 seconds.
 File lengths (MBytes):  RWF=      5 Int=      0 D2E=      0 Chk=      1 Scr=      1
 Normal termination of Gaussian 09 at Thu Jul 14 15:56:07 2016.
