 Entering Gaussian System, Link 0=g16
 Input=grid_230_270.gjf
 Output=grid_230_270.out
 Initial command:
 /n/sw/g16_nehalem/g16/l1.exe "/n/holyscratch01/jacobsen_lab/cwagen_grid_230_270/Gau-14323.inp" -scrdir="/n/holyscratch01/jacobsen_lab/cwagen_grid_230_270/"
 Entering Link 1 = /n/sw/g16_nehalem/g16/l1.exe PID=     14324.
  
 Copyright (c) 1988,1990,1992,1993,1995,1998,2003,2009,2016,
            Gaussian, Inc.  All Rights Reserved.
  
 This is part of the Gaussian(R) 16 program.  It is based on
 the Gaussian(R) 09 system (copyright 2009, Gaussian, Inc.),
 the Gaussian(R) 03 system (copyright 2003, Gaussian, Inc.),
 the Gaussian(R) 98 system (copyright 1998, Gaussian, Inc.),
 the Gaussian(R) 94 system (copyright 1995, Gaussian, Inc.),
 the Gaussian 92(TM) system (copyright 1992, Gaussian, Inc.),
 the Gaussian 90(TM) system (copyright 1990, Gaussian, Inc.),
 the Gaussian 88(TM) system (copyright 1988, Gaussian, Inc.),
 the Gaussian 86(TM) system (copyright 1986, Carnegie Mellon
 University), and the Gaussian 82(TM) system (copyright 1983,
 Carnegie Mellon University). Gaussian is a federally registered
 trademark of Gaussian, Inc.
  
 This software contains proprietary and confidential information,
 including trade secrets, belonging to Gaussian, Inc.
  
 This software is provided under written license and may be
 used, copied, transmitted, or stored only in accord with that
 written license.
  
 The following legend is applicable only to US Government
 contracts under FAR:
  
                    RESTRICTED RIGHTS LEGEND
  
 Use, reproduction and disclosure by the US Government is
 subject to restrictions as set forth in subparagraphs (a)
 and (c) of the Commercial Computer Software - Restricted
 Rights clause in FAR 52.227-19.
  
 Gaussian, Inc.
 340 Quinnipiac St., Bldg. 40, Wallingford CT 06492
  
  
 ---------------------------------------------------------------
 Warning -- This program may not be used in any manner that
 competes with the business of Gaussian, Inc. or will provide
 assistance to any competitor of Gaussian, Inc.  The licensee
 of this program is prohibited from giving any competitor of
 Gaussian, Inc. access to this program.  By using this program,
 the user acknowledges that Gaussian, Inc. is engaged in the
 business of creating and licensing software in the field of
 computational chemistry and represents and warrants to the
 licensee that it is not a competitor of Gaussian, Inc. and that
 it will not use this program in any manner prohibited above.
 ---------------------------------------------------------------
  

 Cite this work as:
 Gaussian 16, Revision A.03,
 M. J. Frisch, G. W. Trucks, H. B. Schlegel, G. E. Scuseria, 
 M. A. Robb, J. R. Cheeseman, G. Scalmani, V. Barone, 
 G. A. Petersson, H. Nakatsuji, X. Li, M. Caricato, A. V. Marenich, 
 J. Bloino, B. G. Janesko, R. Gomperts, B. Mennucci, H. P. Hratchian, 
 J. V. Ortiz, A. F. Izmaylov, J. L. Sonnenberg, D. Williams-Young, 
 F. Ding, F. Lipparini, F. Egidi, J. Goings, B. Peng, A. Petrone, 
 T. Henderson, D. Ranasinghe, V. G. Zakrzewski, J. Gao, N. Rega, 
 G. Zheng, W. Liang, M. Hada, M. Ehara, K. Toyota, R. Fukuda, 
 J. Hasegawa, M. Ishida, T. Nakajima, Y. Honda, O. Kitao, H. Nakai, 
 T. Vreven, K. Throssell, J. A. Montgomery, Jr., J. E. Peralta, 
 F. Ogliaro, M. J. Bearpark, J. J. Heyd, E. N. Brothers, K. N. Kudin, 
 V. N. Staroverov, T. A. Keith, R. Kobayashi, J. Normand, 
 K. Raghavachari, A. P. Rendell, J. C. Burant, S. S. Iyengar, 
 J. Tomasi, M. Cossi, J. M. Millam, M. Klene, C. Adamo, R. Cammi, 
 J. W. Ochterski, R. L. Martin, K. Morokuma, O. Farkas, 
 J. B. Foresman, and D. J. Fox, Gaussian, Inc., Wallingford CT, 2016.
 
 ******************************************
 Gaussian 16:  ES64L-G16RevA.03 25-Dec-2016
                14-Dec-2022 
 ******************************************
 %mem=32GB
 %nprocshared=16
 Will use up to   16 processors via shared memory.
 ----------------------------------------------------------------------
 #p opt=modredundant freq=noraman wb97xd/6-31g(d) scrf=(smd,solvent=dic
 hloromethane)
 ----------------------------------------------------------------------
 1/18=120,19=15,26=3,38=1/1,3;
 2/9=110,12=2,17=6,18=5,40=1/2;
 3/5=1,6=6,7=1,11=2,25=1,30=1,70=32201,71=1,72=9,74=-58/1,2,3;
 4//1;
 5/5=2,38=5,53=9/2;
 6/7=2,8=2,9=2,10=2,28=1/1;
 7//1,2,3,16;
 1/18=20,19=15,26=3/3(2);
 2/9=110/2;
 99//99;
 2/9=110/2;
 3/5=1,6=6,7=1,11=2,25=1,30=1,70=32205,71=1,72=9,74=-58/1,2,3;
 4/5=5,16=3,69=1/1;
 5/5=2,38=5,53=9/2;
 7//1,2,3,16;
 1/18=20,19=15,26=3/3(-5);
 2/9=110/2;
 6/7=2,8=2,9=2,10=2,19=2,28=1/1;
 99/9=1/99;
 Leave Link    1 at Wed Dec 14 18:17:10 2022, MaxMem=  4294967296 cpu:               1.9 elap:               0.1
 (Enter /n/sw/g16_nehalem/g16/l101.exe)
 -----
 title
 -----
 Symbolic Z-matrix:
 Charge =  0 Multiplicity = 1
 6                     2.19782   1.12758  -0.70987 
 6                     2.95912  -0.19911  -0.4916 
 6                     2.07485  -1.11527   0.30342 
 6                     1.0789   -1.77916  -0.3149 
 6                    -0.13099   0.17422  -0.41724 
 6                     0.82235   0.89489  -1.32351 
 1                     3.19319  -0.64138  -1.46567 
 1                     3.90013  -0.00175   0.0311 
 1                     2.08072   1.66096   0.23999 
 1                     2.77952   1.77384  -1.37331 
 1                     1.05414  -1.88171  -1.39626 
 1                     0.37705  -2.39158   0.24602 
 1                    -0.0625    0.23634   0.65415 
 1                     0.89822   0.3451   -2.26932 
 1                     0.34769   1.85564  -1.54201 
 6                     2.1776   -1.04486   1.79574 
 1                     1.42027  -1.65845   2.29166 
 1                     3.16985  -1.38069   2.1203 
 1                     2.07     -0.00666   2.13805 
 7                    -1.23918  -0.34839  -0.93586 
 1                    -1.35252  -0.34371  -1.94678 
 6                    -2.32151  -0.93005  -0.23406 
 8                    -3.24619  -1.35989  -0.88554 
 6                    -2.22775  -0.94989   1.2594 
 1                    -1.32859  -1.48016   1.59039 
 1                    -2.17211   0.07984   1.63296 
 1                    -3.11292  -1.44653   1.65677 
 17                   -1.0824    2.44286   0.69547 
 
 Add virtual bond connecting atoms Cl28       and H13        Dist= 4.59D+00.
 The following ModRedundant input section has been read:
 B       4       5 F                                                           
 B       5      28 F                                                           
 
 ITRead=  0  0  0  0  0  0  0  0  0  0  0  0  0  0  0  0  0  0  0  0
 ITRead=  0  0  0  0  0  0  0  0
 MicOpt= -1 -1 -1 -1 -1 -1 -1 -1 -1 -1 -1 -1 -1 -1 -1 -1 -1 -1 -1 -1
 MicOpt= -1 -1 -1 -1 -1 -1 -1 -1
 NAtoms=     28 NQM=       28 NQMF=       0 NMMI=      0 NMMIF=      0
                NMic=       0 NMicF=      0.
                    Isotopes and Nuclear Properties:
 (Nuclear quadrupole moments (NQMom) in fm**2, nuclear magnetic moments (NMagM)
  in nuclear magnetons)

  Atom         1           2           3           4           5           6           7           8           9          10
 IAtWgt=          12          12          12          12          12          12           1           1           1           1
 AtmWgt=  12.0000000  12.0000000  12.0000000  12.0000000  12.0000000  12.0000000   1.0078250   1.0078250   1.0078250   1.0078250
 NucSpn=           0           0           0           0           0           0           1           1           1           1
 AtZEff=   0.0000000   0.0000000   0.0000000   0.0000000   0.0000000   0.0000000   0.0000000   0.0000000   0.0000000   0.0000000
 NQMom=    0.0000000   0.0000000   0.0000000   0.0000000   0.0000000   0.0000000   0.0000000   0.0000000   0.0000000   0.0000000
 NMagM=    0.0000000   0.0000000   0.0000000   0.0000000   0.0000000   0.0000000   2.7928460   2.7928460   2.7928460   2.7928460
 AtZNuc=   6.0000000   6.0000000   6.0000000   6.0000000   6.0000000   6.0000000   1.0000000   1.0000000   1.0000000   1.0000000

  Atom        11          12          13          14          15          16          17          18          19          20
 IAtWgt=           1           1           1           1           1          12           1           1           1          14
 AtmWgt=   1.0078250   1.0078250   1.0078250   1.0078250   1.0078250  12.0000000   1.0078250   1.0078250   1.0078250  14.0030740
 NucSpn=           1           1           1           1           1           0           1           1           1           2
 AtZEff=   0.0000000   0.0000000   0.0000000   0.0000000   0.0000000   0.0000000   0.0000000   0.0000000   0.0000000   0.0000000
 NQMom=    0.0000000   0.0000000   0.0000000   0.0000000   0.0000000   0.0000000   0.0000000   0.0000000   0.0000000   2.0440000
 NMagM=    2.7928460   2.7928460   2.7928460   2.7928460   2.7928460   0.0000000   2.7928460   2.7928460   2.7928460   0.4037610
 AtZNuc=   1.0000000   1.0000000   1.0000000   1.0000000   1.0000000   6.0000000   1.0000000   1.0000000   1.0000000   7.0000000

  Atom        21          22          23          24          25          26          27          28
 IAtWgt=           1          12          16          12           1           1           1          35
 AtmWgt=   1.0078250  12.0000000  15.9949146  12.0000000   1.0078250   1.0078250   1.0078250  34.9688527
 NucSpn=           1           0           0           0           1           1           1           3
 AtZEff=   0.0000000   0.0000000   0.0000000   0.0000000   0.0000000   0.0000000   0.0000000   0.0000000
 NQMom=    0.0000000   0.0000000   0.0000000   0.0000000   0.0000000   0.0000000   0.0000000  -8.1650000
 NMagM=    2.7928460   0.0000000   0.0000000   0.0000000   2.7928460   2.7928460   2.7928460   0.8218740
 AtZNuc=   1.0000000   6.0000000   8.0000000   6.0000000   1.0000000   1.0000000   1.0000000  17.0000000
 Leave Link  101 at Wed Dec 14 18:17:10 2022, MaxMem=  4294967296 cpu:               5.6 elap:               0.4
 (Enter /n/sw/g16_nehalem/g16/l103.exe)

 GradGradGradGradGradGradGradGradGradGradGradGradGradGradGradGradGradGrad
 Berny optimization.
 Initialization pass.
                           ----------------------------
                           !    Initial Parameters    !
                           ! (Angstroms and Degrees)  !
 --------------------------                            --------------------------
 ! Name  Definition              Value          Derivative Info.                !
 --------------------------------------------------------------------------------
 ! R1    R(1,2)                  1.5451         estimate D2E/DX2                !
 ! R2    R(1,6)                  1.524          estimate D2E/DX2                !
 ! R3    R(1,9)                  1.0956         estimate D2E/DX2                !
 ! R4    R(1,10)                 1.0937         estimate D2E/DX2                !
 ! R5    R(2,3)                  1.5011         estimate D2E/DX2                !
 ! R6    R(2,7)                  1.0951         estimate D2E/DX2                !
 ! R7    R(2,8)                  1.0944         estimate D2E/DX2                !
 ! R8    R(3,4)                  1.3472         estimate D2E/DX2                !
 ! R9    R(3,16)                 1.4975         estimate D2E/DX2                !
 ! R10   R(4,5)                  2.3            Frozen                          !
 ! R11   R(4,11)                 1.0865         estimate D2E/DX2                !
 ! R12   R(4,12)                 1.0873         estimate D2E/DX2                !
 ! R13   R(5,6)                  1.4999         estimate D2E/DX2                !
 ! R14   R(5,13)                 1.0754         estimate D2E/DX2                !
 ! R15   R(5,20)                 1.3305         estimate D2E/DX2                !
 ! R16   R(5,28)                 2.7            Frozen                          !
 ! R17   R(6,14)                 1.0966         estimate D2E/DX2                !
 ! R18   R(6,15)                 1.0937         estimate D2E/DX2                !
 ! R19   R(13,28)                2.4312         estimate D2E/DX2                !
 ! R20   R(16,17)                1.0936         estimate D2E/DX2                !
 ! R21   R(16,18)                1.0967         estimate D2E/DX2                !
 ! R22   R(16,19)                1.0985         estimate D2E/DX2                !
 ! R23   R(20,21)                1.0173         estimate D2E/DX2                !
 ! R24   R(20,22)                1.415          estimate D2E/DX2                !
 ! R25   R(22,23)                1.21           estimate D2E/DX2                !
 ! R26   R(22,24)                1.4965         estimate D2E/DX2                !
 ! R27   R(24,25)                1.0951         estimate D2E/DX2                !
 ! R28   R(24,26)                1.0968         estimate D2E/DX2                !
 ! R29   R(24,27)                1.09           estimate D2E/DX2                !
 ! A1    A(2,1,6)              111.7451         estimate D2E/DX2                !
 ! A2    A(2,1,9)              110.3766         estimate D2E/DX2                !
 ! A3    A(2,1,10)             109.3291         estimate D2E/DX2                !
 ! A4    A(6,1,9)              109.0835         estimate D2E/DX2                !
 ! A5    A(6,1,10)             109.0261         estimate D2E/DX2                !
 ! A6    A(9,1,10)             107.1621         estimate D2E/DX2                !
 ! A7    A(1,2,3)              107.9757         estimate D2E/DX2                !
 ! A8    A(1,2,7)              109.0528         estimate D2E/DX2                !
 ! A9    A(1,2,8)              109.6517         estimate D2E/DX2                !
 ! A10   A(3,2,7)              110.5186         estimate D2E/DX2                !
 ! A11   A(3,2,8)              111.3237         estimate D2E/DX2                !
 ! A12   A(7,2,8)              108.2933         estimate D2E/DX2                !
 ! A13   A(2,3,4)              119.5495         estimate D2E/DX2                !
 ! A14   A(2,3,16)             117.3008         estimate D2E/DX2                !
 ! A15   A(4,3,16)             122.091          estimate D2E/DX2                !
 ! A16   A(3,4,11)             121.3426         estimate D2E/DX2                !
 ! A17   A(3,4,12)             121.197          estimate D2E/DX2                !
 ! A18   A(11,4,12)            116.4585         estimate D2E/DX2                !
 ! A19   A(6,5,13)             122.26           estimate D2E/DX2                !
 ! A20   A(6,5,20)             118.8573         estimate D2E/DX2                !
 ! A21   A(13,5,20)            117.6519         estimate D2E/DX2                !
 ! A22   A(1,6,5)              113.8122         estimate D2E/DX2                !
 ! A23   A(1,6,14)             111.185          estimate D2E/DX2                !
 ! A24   A(1,6,15)             109.7567         estimate D2E/DX2                !
 ! A25   A(5,6,14)             108.9183         estimate D2E/DX2                !
 ! A26   A(5,6,15)             105.4835         estimate D2E/DX2                !
 ! A27   A(14,6,15)            107.3453         estimate D2E/DX2                !
 ! A28   A(5,13,28)             92.4439         estimate D2E/DX2                !
 ! A29   A(3,16,17)            112.2098         estimate D2E/DX2                !
 ! A30   A(3,16,18)            110.0363         estimate D2E/DX2                !
 ! A31   A(3,16,19)            110.3815         estimate D2E/DX2                !
 ! A32   A(17,16,18)           108.6963         estimate D2E/DX2                !
 ! A33   A(17,16,19)           108.7319         estimate D2E/DX2                !
 ! A34   A(18,16,19)           106.6082         estimate D2E/DX2                !
 ! A35   A(5,20,21)            118.5784         estimate D2E/DX2                !
 ! A36   A(5,20,22)            127.2448         estimate D2E/DX2                !
 ! A37   A(21,20,22)           114.1767         estimate D2E/DX2                !
 ! A38   A(20,22,23)           117.6125         estimate D2E/DX2                !
 ! A39   A(20,22,24)           116.9029         estimate D2E/DX2                !
 ! A40   A(23,22,24)           125.4824         estimate D2E/DX2                !
 ! A41   A(22,24,25)           111.0685         estimate D2E/DX2                !
 ! A42   A(22,24,26)           109.3066         estimate D2E/DX2                !
 ! A43   A(22,24,27)           108.6008         estimate D2E/DX2                !
 ! A44   A(25,24,26)           108.0604         estimate D2E/DX2                !
 ! A45   A(25,24,27)           109.6319         estimate D2E/DX2                !
 ! A46   A(26,24,27)           110.1697         estimate D2E/DX2                !
 ! D1    D(6,1,2,3)            -53.467          estimate D2E/DX2                !
 ! D2    D(6,1,2,7)             66.6592         estimate D2E/DX2                !
 ! D3    D(6,1,2,8)           -174.9203         estimate D2E/DX2                !
 ! D4    D(9,1,2,3)             68.1097         estimate D2E/DX2                !
 ! D5    D(9,1,2,7)           -171.764          estimate D2E/DX2                !
 ! D6    D(9,1,2,8)            -53.3436         estimate D2E/DX2                !
 ! D7    D(10,1,2,3)          -174.2537         estimate D2E/DX2                !
 ! D8    D(10,1,2,7)           -54.1275         estimate D2E/DX2                !
 ! D9    D(10,1,2,8)            64.2929         estimate D2E/DX2                !
 ! D10   D(2,1,6,5)             66.832          estimate D2E/DX2                !
 ! D11   D(2,1,6,14)           -56.6113         estimate D2E/DX2                !
 ! D12   D(2,1,6,15)          -175.2275         estimate D2E/DX2                !
 ! D13   D(9,1,6,5)            -55.4884         estimate D2E/DX2                !
 ! D14   D(9,1,6,14)          -178.9317         estimate D2E/DX2                !
 ! D15   D(9,1,6,15)            62.4522         estimate D2E/DX2                !
 ! D16   D(10,1,6,5)          -172.205          estimate D2E/DX2                !
 ! D17   D(10,1,6,14)           64.3517         estimate D2E/DX2                !
 ! D18   D(10,1,6,15)          -54.2645         estimate D2E/DX2                !
 ! D19   D(1,2,3,4)             78.9806         estimate D2E/DX2                !
 ! D20   D(1,2,3,16)           -89.5028         estimate D2E/DX2                !
 ! D21   D(7,2,3,4)            -40.2198         estimate D2E/DX2                !
 ! D22   D(7,2,3,16)           151.2969         estimate D2E/DX2                !
 ! D23   D(8,2,3,4)           -160.6087         estimate D2E/DX2                !
 ! D24   D(8,2,3,16)            30.908          estimate D2E/DX2                !
 ! D25   D(2,3,4,11)            16.4409         estimate D2E/DX2                !
 ! D26   D(2,3,4,12)          -175.4158         estimate D2E/DX2                !
 ! D27   D(16,3,4,11)         -175.6469         estimate D2E/DX2                !
 ! D28   D(16,3,4,12)           -7.5036         estimate D2E/DX2                !
 ! D29   D(2,3,16,17)          173.3614         estimate D2E/DX2                !
 ! D30   D(2,3,16,18)          -65.4775         estimate D2E/DX2                !
 ! D31   D(2,3,16,19)           51.9128         estimate D2E/DX2                !
 ! D32   D(4,3,16,17)            5.1914         estimate D2E/DX2                !
 ! D33   D(4,3,16,18)          126.3525         estimate D2E/DX2                !
 ! D34   D(4,3,16,19)         -116.2572         estimate D2E/DX2                !
 ! D35   D(13,5,6,1)            28.021          estimate D2E/DX2                !
 ! D36   D(13,5,6,14)          152.6885         estimate D2E/DX2                !
 ! D37   D(13,5,6,15)          -92.3529         estimate D2E/DX2                !
 ! D38   D(20,5,6,1)          -164.9572         estimate D2E/DX2                !
 ! D39   D(20,5,6,14)          -40.2898         estimate D2E/DX2                !
 ! D40   D(20,5,6,15)           74.6689         estimate D2E/DX2                !
 ! D41   D(6,5,13,28)           77.5641         estimate D2E/DX2                !
 ! D42   D(20,5,13,28)         -89.6061         estimate D2E/DX2                !
 ! D43   D(6,5,20,21)            7.3837         estimate D2E/DX2                !
 ! D44   D(6,5,20,22)         -172.5218         estimate D2E/DX2                !
 ! D45   D(13,5,20,21)         175.0033         estimate D2E/DX2                !
 ! D46   D(13,5,20,22)          -4.9022         estimate D2E/DX2                !
 ! D47   D(5,20,22,23)        -179.6813         estimate D2E/DX2                !
 ! D48   D(5,20,22,24)           0.8216         estimate D2E/DX2                !
 ! D49   D(21,20,22,23)          0.4097         estimate D2E/DX2                !
 ! D50   D(21,20,22,24)       -179.0874         estimate D2E/DX2                !
 ! D51   D(20,22,24,25)        -57.938          estimate D2E/DX2                !
 ! D52   D(20,22,24,26)         61.2045         estimate D2E/DX2                !
 ! D53   D(20,22,24,27)       -178.5712         estimate D2E/DX2                !
 ! D54   D(23,22,24,25)        122.6093         estimate D2E/DX2                !
 ! D55   D(23,22,24,26)       -118.2483         estimate D2E/DX2                !
 ! D56   D(23,22,24,27)          1.9761         estimate D2E/DX2                !
 --------------------------------------------------------------------------------
 Trust Radius=3.00D-01 FncErr=1.00D-07 GrdErr=1.00D-06 EigMax=2.50D+02 EigMin=1.00D-04
 Number of steps in this run=    141 maximum allowed number of steps=    168.
 GradGradGradGradGradGradGradGradGradGradGradGradGradGradGradGradGradGrad

 Leave Link  103 at Wed Dec 14 18:17:10 2022, MaxMem=  4294967296 cpu:               0.8 elap:               0.1
 (Enter /n/sw/g16_nehalem/g16/l202.exe)
                          Input orientation:                          
 ---------------------------------------------------------------------
 Center     Atomic      Atomic             Coordinates (Angstroms)
 Number     Number       Type             X           Y           Z
 ---------------------------------------------------------------------
      1          6           0        2.197816    1.127584   -0.709868
      2          6           0        2.959124   -0.199108   -0.491595
      3          6           0        2.074850   -1.115272    0.303416
      4          6           0        1.078904   -1.779157   -0.314897
      5          6           0       -0.130993    0.174218   -0.417238
      6          6           0        0.822348    0.894892   -1.323506
      7          1           0        3.193190   -0.641378   -1.465666
      8          1           0        3.900132   -0.001753    0.031095
      9          1           0        2.080724    1.660962    0.239990
     10          1           0        2.779518    1.773839   -1.373311
     11          1           0        1.054140   -1.881710   -1.396256
     12          1           0        0.377047   -2.391583    0.246017
     13          1           0       -0.062504    0.236338    0.654152
     14          1           0        0.898216    0.345102   -2.269316
     15          1           0        0.347690    1.855641   -1.542014
     16          6           0        2.177604   -1.044860    1.795735
     17          1           0        1.420266   -1.658453    2.291655
     18          1           0        3.169850   -1.380686    2.120300
     19          1           0        2.070004   -0.006655    2.138050
     20          7           0       -1.239182   -0.348389   -0.935864
     21          1           0       -1.352516   -0.343706   -1.946784
     22          6           0       -2.321509   -0.930048   -0.234056
     23          8           0       -3.246185   -1.359890   -0.885536
     24          6           0       -2.227750   -0.949888    1.259403
     25          1           0       -1.328591   -1.480158    1.590387
     26          1           0       -2.172113    0.079837    1.632963
     27          1           0       -3.112919   -1.446529    1.656768
     28         17           0       -1.082397    2.442857    0.695467
 ---------------------------------------------------------------------
                    Distance matrix (angstroms):
                    1          2          3          4          5
     1  C    0.000000
     2  C    1.545104   0.000000
     3  C    2.464197   1.501113   0.000000
     4  C    3.139603   2.462317   1.347206   0.000000
     5  C    2.533355   3.113475   2.654783   2.300000   0.000000
     6  C    1.524011   2.540615   2.873395   2.869434   1.499851
     7  H    2.165924   1.095082   2.145906   2.662521   3.579747
     8  H    2.173087   1.094372   2.155397   3.352343   4.059795
     9  H    1.095643   2.183269   2.776965   3.625736   2.744822
    10  H    1.093700   2.168456   3.413932   4.078739   3.456000
    11  H    3.291652   2.697874   2.125597   1.086493   2.567072
    12  H    4.075960   3.466719   2.124806   1.087333   2.698397
    13  H    2.786380   3.260765   2.553066   2.510794   1.075373
    14  H    2.175573   2.775572   3.183726   2.892210   2.125715
    15  H    2.155342   3.484962   3.900643   3.905413   2.078808
    16  C    3.316318   2.560849   1.497509   2.490201   3.422429
    17  H    4.168420   3.499179   2.162549   2.631580   3.619833
    18  H    3.904628   2.874461   2.137881   3.234350   4.444366
    19  H    3.068138   2.782554   2.143581   3.184492   3.377366
    20  N    3.747336   4.224386   3.620322   2.793961   1.330479
    21  H    4.037265   4.552881   4.171996   3.261193   2.024815
    22  C    4.988441   5.337198   4.432962   3.505757   2.459943
    23  O    5.987949   6.325225   5.457734   4.382671   3.503885
    24  C    5.270631   5.525697   4.410627   3.755006   2.910520
    25  H    4.952478   4.935609   3.656890   3.084727   2.863871
    26  H    5.067831   5.560679   4.607893   4.221271   2.894547
    27  H    6.358532   6.560582   5.371614   4.644296   3.977462
    28  Cl   3.803249   4.972222   4.773070   4.849480   2.700001
                    6          7          8          9         10
     6  C    0.000000
     7  H    2.828644   0.000000
     8  H    3.480182   1.774593   0.000000
     9  H    2.148230   3.073697   2.473561   0.000000
    10  H    2.146053   2.452127   2.526036   1.761759   0.000000
    11  H    2.787210   2.473616   3.697464   4.035059   4.042338
    12  H    3.669143   3.731453   4.262582   4.396097   5.073936
    13  H    2.264462   3.982908   4.018379   2.606628   3.814656
    14  H    1.096623   2.624100   3.797854   3.070249   2.526541
    15  H    1.093657   3.786529   4.306324   2.493360   2.439045
    16  C    3.915229   3.439615   2.677523   3.122691   4.283715
    17  H    4.466147   4.277285   3.742262   3.957783   5.201939
    18  H    4.748560   3.661458   2.607594   3.738099   4.723209
    19  H    3.788377   3.827687   2.790816   2.526597   4.000403
    20  N    2.438426   4.473528   5.240965   4.054861   4.565650
    21  H    2.579270   4.580778   5.623100   4.537379   4.678309
    22  C    3.794884   5.657924   6.296098   5.130079   5.884673
    23  O    4.672132   6.505257   7.331753   6.226421   6.809352
    24  C    4.402014   6.075177   6.321285   5.139911   6.278742
    25  H    4.331071   5.521731   5.653018   4.828420   6.020678
    26  H    4.286236   6.237638   6.280509   4.746257   6.035393
    27  H    5.463571   7.082717   7.342552   6.215922   7.367019
    28  Cl   3.178129   5.697688   5.589553   3.290008   4.431909
                   11         12         13         14         15
    11  H    0.000000
    12  H    1.848103   0.000000
    13  H    3.152332   2.695505   0.000000
    14  H    2.396923   3.753393   3.079201   0.000000
    15  H    3.806325   4.608343   2.759266   1.764589   0.000000
    16  C    3.485871   2.730805   2.821837   4.482574   4.785610
    17  H    3.712759   2.410481   2.910370   5.008915   5.310018
    18  H    4.134419   3.512065   3.900317   5.235207   5.643664
    19  H    4.127848   3.483357   2.609327   4.574024   4.469607
    20  N    2.796848   2.860713   2.062675   2.612947   2.782684
    21  H    2.908699   3.463173   2.960650   2.375769   2.809211
    22  C    3.694777   3.106245   2.693042   4.016829   4.073750
    23  O    4.361872   3.933524   3.880001   4.690192   4.866882
    24  C    4.323381   3.144901   2.541998   4.888816   4.727771
    25  H    3.841704   2.355255   2.329350   4.815345   4.873337
    26  H    4.840717   3.811791   2.330883   4.972431   4.425310
    27  H    5.184083   3.881135   3.625233   5.891798   5.754333
    28  Cl   5.257564   5.069891   2.431176   4.136828   2.719613
                   16         17         18         19         20
    16  C    0.000000
    17  H    1.093615   0.000000
    18  H    1.096665   1.779764   0.000000
    19  H    1.098466   1.781626   1.760096   0.000000
    20  N    4.429575   4.382443   5.463089   4.529508   0.000000
    21  H    5.192284   5.232709   6.169951   5.339767   1.017264
    22  C    4.937130   4.572819   5.991752   5.075916   1.415024
    23  O    6.058543   5.653269   7.085266   6.263799   2.248050
    24  C    4.438898   3.856894   5.482775   4.486914   2.481585
    25  H    3.539075   2.842496   4.530637   3.744542   2.769628
    26  H    4.495717   4.044838   5.559424   4.272956   2.766335
    27  H    5.307569   4.582331   6.300189   5.400700   3.382091
    28  Cl   4.899221   5.062794   5.893321   4.244854   3.236800
                   21         22         23         24         25
    21  H    0.000000
    22  C    2.053334   0.000000
    23  O    2.396844   1.210048   0.000000
    24  C    3.378332   1.496531   2.409580   0.000000
    25  H    3.715330   2.148744   3.133979   1.095091   0.000000
    26  H    3.696717   2.127897   3.093426   1.096803   1.773958
    27  H    4.159426   2.113835   2.547268   1.089989   1.785879
    28  Cl   3.849596   3.711590   4.652143   3.624993   4.031320
                   26         27         28
    26  H    0.000000
    27  H    1.793175   0.000000
    28  Cl   2.765907   4.491597   0.000000
 Stoichiometry    C9H16ClNO
 Framework group  C1[X(C9H16ClNO)]
 Deg. of freedom    78
 Full point group                 C1      NOp   1
 Largest Abelian subgroup         C1      NOp   1
 Largest concise Abelian subgroup C1      NOp   1
                         Standard orientation:                         
 ---------------------------------------------------------------------
 Center     Atomic      Atomic             Coordinates (Angstroms)
 Number     Number       Type             X           Y           Z
 ---------------------------------------------------------------------
      1          6           0        2.197816    1.127584   -0.709868
      2          6           0        2.959124   -0.199108   -0.491595
      3          6           0        2.074850   -1.115272    0.303416
      4          6           0        1.078904   -1.779157   -0.314897
      5          6           0       -0.130993    0.174218   -0.417238
      6          6           0        0.822348    0.894892   -1.323506
      7          1           0        3.193190   -0.641378   -1.465666
      8          1           0        3.900132   -0.001753    0.031095
      9          1           0        2.080724    1.660962    0.239990
     10          1           0        2.779518    1.773839   -1.373311
     11          1           0        1.054140   -1.881710   -1.396256
     12          1           0        0.377047   -2.391583    0.246017
     13          1           0       -0.062504    0.236338    0.654152
     14          1           0        0.898216    0.345102   -2.269316
     15          1           0        0.347690    1.855641   -1.542014
     16          6           0        2.177604   -1.044860    1.795735
     17          1           0        1.420266   -1.658453    2.291655
     18          1           0        3.169850   -1.380686    2.120300
     19          1           0        2.070004   -0.006655    2.138050
     20          7           0       -1.239182   -0.348389   -0.935864
     21          1           0       -1.352516   -0.343706   -1.946784
     22          6           0       -2.321509   -0.930048   -0.234056
     23          8           0       -3.246185   -1.359890   -0.885536
     24          6           0       -2.227750   -0.949888    1.259403
     25          1           0       -1.328591   -1.480158    1.590387
     26          1           0       -2.172113    0.079837    1.632963
     27          1           0       -3.112919   -1.446529    1.656768
     28         17           0       -1.082397    2.442857    0.695467
 ---------------------------------------------------------------------
 Rotational constants (GHZ):           0.9093421           0.5636873           0.4574272
 Leave Link  202 at Wed Dec 14 18:17:10 2022, MaxMem=  4294967296 cpu:               0.8 elap:               0.1
 (Enter /n/sw/g16_nehalem/g16/l301.exe)
 Standard basis: 6-31G(d) (6D, 7F)
 Ernie: Thresh=  0.10000D-02 Tol=  0.10000D-05 Strict=F.
 There are   216 symmetry adapted cartesian basis functions of A   symmetry.
 There are   216 symmetry adapted basis functions of A   symmetry.
   216 basis functions,   424 primitive gaussians,   216 cartesian basis functions
    51 alpha electrons       51 beta electrons
       nuclear repulsion energy       837.5696372909 Hartrees.
 IExCor= 4639 DFT=T Ex+Corr=wB97XD ExCW=0 ScaHFX=  1.000000
 ScaDFX=  1.000000  1.000000  1.000000  1.000000 ScalE2=  1.000000  1.000000
 IRadAn=      5 IRanWt=     -1 IRanGd=            0 ICorTp=0 IEmpDi=121
 HFx  wShort=  0.000000 wLong=  0.200000 cFull=  0.222036 cShort=  0.000000 cLong=  0.777964
 DFx  wShort=  0.000000 wLong=  0.200000 cFull=  0.000000 cShort=  0.000000 cLong=  1.000000
 NAtoms=   28 NActive=   28 NUniq=   28 SFac= 1.00D+00 NAtFMM=   60 NAOKFM=F Big=F
 Integral buffers will be    131072 words long.
 Raffenetti 2 integral format.
 Two-electron integral symmetry is turned on.
 R6Disp:  Grimme-D2 Dispersion energy=       -0.0241602421 Hartrees.
 Nuclear repulsion after empirical dispersion term =      837.5454770488 Hartrees.
 ------------------------------------------------------------------------------
 Polarizable Continuum Model (PCM)
 =================================
 Model                : PCM.
 Atomic radii         : SMD-Coulomb.
 Polarization charges : Total charges.
 Charge compensation  : None.
 Solution method      : On-the-fly selection.
 Cavity type          : VdW (van der Waals Surface) (Alpha=1.000).
 Cavity algorithm     : GePol (No added spheres)
                        Default sphere list used, NSphG=   28.
                        Lebedev-Laikov grids with approx.  5.0 points / Ang**2.
                        Smoothing algorithm: York/Karplus (Gamma=1.0000).
                        Polarization charges: spherical gaussians, with
                                              point-specific exponents (IZeta= 3).
                        Self-potential: point-specific (ISelfS= 7).
                        Self-field    : sphere-specific E.n sum rule (ISelfD= 2).
 1st derivatives      : Analytical E(r).r(x)/FMM algorithm (CHGder, D1EAlg=3).
                        Cavity 1st derivative terms included.
 Solvent              : Dichloromethane, Eps=   8.930000 Eps(inf)=   2.028346
 ------------------------------------------------------------------------------
 GePol: Number of generator spheres                  =      28
 GePol: Total number of spheres                      =      28
 GePol: Number of exposed spheres                    =      28 (100.00%)
 GePol: Number of points                             =    2077
 GePol: Average weight of points                     =       0.12
 GePol: Minimum weight of points                     =   0.97D-10
 GePol: Maximum weight of points                     =    0.20498
 GePol: Number of points with low weight             =      99
 GePol: Fraction of low-weight points (<1% of avg)   =       4.77%
 GePol: Cavity surface area                          =    253.732 Ang**2
 GePol: Cavity volume                                =    239.209 Ang**3
 ------------------------------------------------------------------------------
 Atomic radii for non-electrostatic terms: SMD-CDS.
 ------------------------------------------------------------------------------
 PCM non-electrostatic energy =        -0.0055871748 Hartrees.
 Nuclear repulsion after PCM non-electrostatic terms =      837.5398898740 Hartrees.
 Leave Link  301 at Wed Dec 14 18:17:11 2022, MaxMem=  4294967296 cpu:               1.7 elap:               0.1
 (Enter /n/sw/g16_nehalem/g16/l302.exe)
 NPDir=0 NMtPBC=     1 NCelOv=     1 NCel=       1 NClECP=     1 NCelD=      1
         NCelK=      1 NCelE2=     1 NClLst=     1 CellRange=     0.0.
 One-electron integrals computed using PRISM.
 One-electron integral symmetry used in STVInt
 NBasis=   216 RedAO= T EigKep=  2.19D-03  NBF=   216
 NBsUse=   216 1.00D-06 EigRej= -1.00D+00 NBFU=   216
 Precomputing XC quadrature grid using
 IXCGrd= 4 IRadAn=           5 IRanWt=          -1 IRanGd=           0 AccXCQ= 0.00D+00.
 Generated NRdTot=       0 NPtTot=           0 NUsed=           0 NTot=          32
 NSgBfM=   216   216   216   216   216 MxSgAt=    28 MxSgA2=    28.
 Leave Link  302 at Wed Dec 14 18:17:11 2022, MaxMem=  4294967296 cpu:               4.3 elap:               0.3
 (Enter /n/sw/g16_nehalem/g16/l303.exe)
 DipDrv:  MaxL=1.
 Leave Link  303 at Wed Dec 14 18:17:11 2022, MaxMem=  4294967296 cpu:               1.2 elap:               0.1
 (Enter /n/sw/g16_nehalem/g16/l401.exe)
 ExpMin= 1.43D-01 ExpMax= 2.52D+04 ExpMxC= 3.78D+03 IAcc=3 IRadAn=         5 AccDes= 0.00D+00
 Harris functional with IExCor= 4639 and IRadAn=       5 diagonalized for initial guess.
 HarFok:  IExCor= 4639 AccDes= 0.00D+00 IRadAn=         5 IDoV= 1 UseB2=F ITyADJ=14
 ICtDFT=  3500011 ScaDFX=  1.000000  1.000000  1.000000  1.000000
 FoFCou: FMM=F IPFlag=           0 FMFlag=      100000 FMFlg1=           0
         NFxFlg=           0 DoJE=T BraDBF=F KetDBF=T FulRan=T
         wScrn=  0.000000 ICntrl=       500 IOpCl=  0 I1Cent=   200000004 NGrid=           0
         NMat0=    1 NMatS0=      1 NMatT0=    0 NMatD0=    1 NMtDS0=    0 NMtDT0=    0
 Petite list used in FoFCou.
 Harris En= -913.142768076200    
 JPrj=0 DoOrth=F DoCkMO=F.
 Leave Link  401 at Wed Dec 14 18:17:12 2022, MaxMem=  4294967296 cpu:              18.9 elap:               1.2
 (Enter /n/sw/g16_nehalem/g16/l502.exe)
 Integral symmetry usage will be decided dynamically.
 Closed shell SCF:
 Using DIIS extrapolation, IDIIS=  1040.
 NGot=  4294967296 LenX=  4294867895 LenY=  4294820798
 Requested convergence on RMS density matrix=1.00D-08 within 128 cycles.
 Requested convergence on MAX density matrix=1.00D-06.
 Requested convergence on             energy=1.00D-06.
 No special actions if energy rises.
 Fock matrices will be formed incrementally for  20 cycles.

 Cycle   1  Pass 1  IDiag  1:
 FoFJK:  IHMeth= 1 ICntrl=       0 DoSepK=T KAlg= 0 I1Cent=           0 FoldK=F
 IRaf=         1 NMat=       1 IRICut=       1 DoRegI=T DoRafI=F ISym2E= 0 IDoP0=0 IntGTp=1.
 FoFCou: FMM=F IPFlag=           0 FMFlag=      100000 FMFlg1=           0
         NFxFlg=           0 DoJE=T BraDBF=F KetDBF=F FulRan=T
         wScrn=  0.000000 ICntrl=       500 IOpCl=  0 I1Cent=           0 NGrid=           0
         NMat0=    1 NMatS0=      1 NMatT0=    0 NMatD0=    1 NMtDS0=    0 NMtDT0=    0
 Symmetry not used in FoFCou.
 Inv3:  Mode=1 IEnd=    12941787.
 Iteration    1 A*A^-1 deviation from unit magnitude is 8.99D-15 for    211.
 Iteration    1 A*A^-1 deviation from orthogonality  is 5.34D-15 for   1270    244.
 Iteration    1 A^-1*A deviation from unit magnitude is 7.33D-15 for    345.
 Iteration    1 A^-1*A deviation from orthogonality  is 2.31D-15 for   2075   1940.
 E= -942.421107524291    
 DIIS: error= 1.23D-01 at cycle   1 NSaved=   1.
 NSaved= 1 IEnMin= 1 EnMin= -942.421107524291     IErMin= 1 ErrMin= 1.23D-01
 ErrMax= 1.23D-01  0.00D+00 EMaxC= 1.00D-01 BMatC= 6.19D-01 BMatP= 6.19D-01
 IDIUse=3 WtCom= 0.00D+00 WtEn= 1.00D+00
 Coeff-Com:  0.100D+01
 Coeff-En:   0.100D+01
 Coeff:      0.100D+01
 Gap=     0.347 Goal=   None    Shift=    0.000
 GapD=    0.347 DampG=1.000 DampE=0.250 DampFc=0.2500 IDamp=-1.
 Damping current iteration by 2.50D-01
 RMSDP=3.76D-03 MaxDP=1.94D-01              OVMax= 1.22D-01

 Cycle   2  Pass 1  IDiag  1:
 RMSU=  9.39D-04    CP:  1.00D+00
 E= -942.477358583632     Delta-E=       -0.056251059342 Rises=F Damp=T
 DIIS: error= 8.78D-02 at cycle   2 NSaved=   2.
 NSaved= 2 IEnMin= 2 EnMin= -942.477358583632     IErMin= 2 ErrMin= 8.78D-02
 ErrMax= 8.78D-02  0.00D+00 EMaxC= 1.00D-01 BMatC= 3.14D-01 BMatP= 6.19D-01
 IDIUse=3 WtCom= 1.22D-01 WtEn= 8.78D-01
 Coeff-Com: -0.222D+01 0.322D+01
 Coeff-En:   0.000D+00 0.100D+01
 Coeff:     -0.271D+00 0.127D+01
 Gap=     0.297 Goal=   None    Shift=    0.000
 RMSDP=2.35D-03 MaxDP=1.11D-01 DE=-5.63D-02 OVMax= 3.36D-02

 Cycle   3  Pass 1  IDiag  1:
 RMSU=  6.27D-04    CP:  1.01D+00  3.00D+00
 E= -942.594255624521     Delta-E=       -0.116897040889 Rises=F Damp=F
 DIIS: error= 9.12D-03 at cycle   3 NSaved=   3.
 NSaved= 3 IEnMin= 3 EnMin= -942.594255624521     IErMin= 3 ErrMin= 9.12D-03
 ErrMax= 9.12D-03  0.00D+00 EMaxC= 1.00D-01 BMatC= 1.20D-02 BMatP= 3.14D-01
 IDIUse=3 WtCom= 9.09D-01 WtEn= 9.12D-02
 Coeff-Com:  0.168D+01-0.222D+01 0.153D+01
 Coeff-En:   0.000D+00 0.000D+00 0.100D+01
 Coeff:      0.153D+01-0.201D+01 0.149D+01
 Gap=     0.310 Goal=   None    Shift=    0.000
 RMSDP=6.48D-04 MaxDP=5.09D-02 DE=-1.17D-01 OVMax= 2.21D-02

 Cycle   4  Pass 1  IDiag  1:
 RMSU=  6.40D-04    CP:  1.01D+00  2.99D+00  9.89D-01
 E= -942.604487602717     Delta-E=       -0.010231978196 Rises=F Damp=F
 DIIS: error= 2.22D-03 at cycle   4 NSaved=   4.
 NSaved= 4 IEnMin= 4 EnMin= -942.604487602717     IErMin= 4 ErrMin= 2.22D-03
 ErrMax= 2.22D-03  0.00D+00 EMaxC= 1.00D-01 BMatC= 1.07D-03 BMatP= 1.20D-02
 IDIUse=3 WtCom= 9.78D-01 WtEn= 2.22D-02
 Coeff-Com:  0.787D+00-0.105D+01 0.701D+00 0.559D+00
 Coeff-En:   0.000D+00 0.000D+00 0.000D+00 0.100D+01
 Coeff:      0.769D+00-0.102D+01 0.685D+00 0.568D+00
 Gap=     0.295 Goal=   None    Shift=    0.000
 RMSDP=1.60D-04 MaxDP=8.89D-03 DE=-1.02D-02 OVMax= 6.36D-03

 Cycle   5  Pass 1  IDiag  1:
 RMSU=  1.18D-04    CP:  1.01D+00  3.00D+00  1.08D+00  8.68D-01
 E= -942.605319657411     Delta-E=       -0.000832054694 Rises=F Damp=F
 DIIS: error= 6.13D-04 at cycle   5 NSaved=   5.
 NSaved= 5 IEnMin= 5 EnMin= -942.605319657411     IErMin= 5 ErrMin= 6.13D-04
 ErrMax= 6.13D-04  0.00D+00 EMaxC= 1.00D-01 BMatC= 5.40D-05 BMatP= 1.07D-03
 IDIUse=3 WtCom= 9.94D-01 WtEn= 6.13D-03
 Coeff-Com:  0.158D+00-0.211D+00 0.140D+00 0.207D+00 0.707D+00
 Coeff-En:   0.000D+00 0.000D+00 0.000D+00 0.000D+00 0.100D+01
 Coeff:      0.157D+00-0.209D+00 0.139D+00 0.205D+00 0.708D+00
 Gap=     0.295 Goal=   None    Shift=    0.000
 RMSDP=3.89D-05 MaxDP=2.02D-03 DE=-8.32D-04 OVMax= 1.75D-03

 Cycle   6  Pass 1  IDiag  1:
 RMSU=  3.47D-05    CP:  1.01D+00  3.00D+00  1.10D+00  8.76D-01  9.04D-01
 E= -942.605359931999     Delta-E=       -0.000040274588 Rises=F Damp=F
 DIIS: error= 2.25D-04 at cycle   6 NSaved=   6.
 NSaved= 6 IEnMin= 6 EnMin= -942.605359931999     IErMin= 6 ErrMin= 2.25D-04
 ErrMax= 2.25D-04  0.00D+00 EMaxC= 1.00D-01 BMatC= 1.05D-05 BMatP= 5.40D-05
 IDIUse=3 WtCom= 9.98D-01 WtEn= 2.25D-03
 Coeff-Com: -0.552D-01 0.732D-01-0.492D-01-0.245D-02 0.325D+00 0.708D+00
 Coeff-En:   0.000D+00 0.000D+00 0.000D+00 0.000D+00 0.000D+00 0.100D+01
 Coeff:     -0.550D-01 0.730D-01-0.491D-01-0.245D-02 0.325D+00 0.709D+00
 Gap=     0.295 Goal=   None    Shift=    0.000
 RMSDP=1.81D-05 MaxDP=6.24D-04 DE=-4.03D-05 OVMax= 7.58D-04

 Cycle   7  Pass 1  IDiag  1:
 RMSU=  1.40D-05    CP:  1.01D+00  3.00D+00  1.11D+00  8.86D-01  9.71D-01
                    CP:  9.63D-01
 E= -942.605370339181     Delta-E=       -0.000010407182 Rises=F Damp=F
 DIIS: error= 2.60D-05 at cycle   7 NSaved=   7.
 NSaved= 7 IEnMin= 7 EnMin= -942.605370339181     IErMin= 7 ErrMin= 2.60D-05
 ErrMax= 2.60D-05  0.00D+00 EMaxC= 1.00D-01 BMatC= 4.01D-07 BMatP= 1.05D-05
 IDIUse=1 WtCom= 1.00D+00 WtEn= 0.00D+00
 Coeff-Com: -0.215D-01 0.286D-01-0.205D-01-0.176D-01 0.182D-01 0.157D+00
 Coeff-Com:  0.856D+00
 Coeff:     -0.215D-01 0.286D-01-0.205D-01-0.176D-01 0.182D-01 0.157D+00
 Coeff:      0.856D+00
 Gap=     0.295 Goal=   None    Shift=    0.000
 RMSDP=5.97D-06 MaxDP=1.37D-04 DE=-1.04D-05 OVMax= 4.74D-04

 Cycle   8  Pass 1  IDiag  1:
 RMSU=  3.35D-06    CP:  1.01D+00  3.00D+00  1.11D+00  8.89D-01  9.86D-01
                    CP:  1.05D+00  1.18D+00
 E= -942.605371092418     Delta-E=       -0.000000753237 Rises=F Damp=F
 DIIS: error= 8.48D-06 at cycle   8 NSaved=   8.
 NSaved= 8 IEnMin= 8 EnMin= -942.605371092418     IErMin= 8 ErrMin= 8.48D-06
 ErrMax= 8.48D-06  0.00D+00 EMaxC= 1.00D-01 BMatC= 4.95D-08 BMatP= 4.01D-07
 IDIUse=1 WtCom= 1.00D+00 WtEn= 0.00D+00
 Coeff-Com:  0.209D-02-0.280D-02 0.885D-03-0.550D-02-0.420D-01-0.522D-01
 Coeff-Com:  0.227D+00 0.872D+00
 Coeff:      0.209D-02-0.280D-02 0.885D-03-0.550D-02-0.420D-01-0.522D-01
 Coeff:      0.227D+00 0.872D+00
 Gap=     0.295 Goal=   None    Shift=    0.000
 RMSDP=2.80D-06 MaxDP=7.28D-05 DE=-7.53D-07 OVMax= 2.92D-04

 Cycle   9  Pass 1  IDiag  1:
 RMSU=  1.52D-06    CP:  1.01D+00  3.00D+00  1.11D+00  8.89D-01  9.92D-01
                    CP:  1.09D+00  1.28D+00  1.15D+00
 E= -942.605371237135     Delta-E=       -0.000000144717 Rises=F Damp=F
 DIIS: error= 3.51D-06 at cycle   9 NSaved=   9.
 NSaved= 9 IEnMin= 9 EnMin= -942.605371237135     IErMin= 9 ErrMin= 3.51D-06
 ErrMax= 3.51D-06  0.00D+00 EMaxC= 1.00D-01 BMatC= 5.36D-09 BMatP= 4.95D-08
 IDIUse=1 WtCom= 1.00D+00 WtEn= 0.00D+00
 Coeff-Com:  0.256D-02-0.342D-02 0.212D-02 0.384D-03-0.964D-02-0.252D-01
 Coeff-Com: -0.330D-01 0.190D+00 0.876D+00
 Coeff:      0.256D-02-0.342D-02 0.212D-02 0.384D-03-0.964D-02-0.252D-01
 Coeff:     -0.330D-01 0.190D+00 0.876D+00
 Gap=     0.295 Goal=   None    Shift=    0.000
 RMSDP=9.39D-07 MaxDP=2.94D-05 DE=-1.45D-07 OVMax= 1.08D-04

 Cycle  10  Pass 1  IDiag  1:
 RMSU=  4.52D-07    CP:  1.01D+00  3.00D+00  1.11D+00  8.89D-01  9.94D-01
                    CP:  1.09D+00  1.30D+00  1.30D+00  1.30D+00
 E= -942.605371253712     Delta-E=       -0.000000016577 Rises=F Damp=F
 DIIS: error= 1.58D-06 at cycle  10 NSaved=  10.
 NSaved=10 IEnMin=10 EnMin= -942.605371253712     IErMin=10 ErrMin= 1.58D-06
 ErrMax= 1.58D-06  0.00D+00 EMaxC= 1.00D-01 BMatC= 1.05D-09 BMatP= 5.36D-09
 IDIUse=1 WtCom= 1.00D+00 WtEn= 0.00D+00
 Coeff-Com:  0.755D-03-0.999D-03 0.791D-03 0.121D-02 0.409D-02-0.123D-02
 Coeff-Com: -0.537D-01-0.804D-01 0.301D+00 0.828D+00
 Coeff:      0.755D-03-0.999D-03 0.791D-03 0.121D-02 0.409D-02-0.123D-02
 Coeff:     -0.537D-01-0.804D-01 0.301D+00 0.828D+00
 Gap=     0.295 Goal=   None    Shift=    0.000
 RMSDP=4.63D-07 MaxDP=1.50D-05 DE=-1.66D-08 OVMax= 5.60D-05

 Cycle  11  Pass 1  IDiag  1:
 RMSU=  1.72D-07    CP:  1.01D+00  3.00D+00  1.11D+00  8.89D-01  9.94D-01
                    CP:  1.10D+00  1.31D+00  1.37D+00  1.51D+00  1.13D+00
 E= -942.605371257232     Delta-E=       -0.000000003520 Rises=F Damp=F
 DIIS: error= 4.83D-07 at cycle  11 NSaved=  11.
 NSaved=11 IEnMin=11 EnMin= -942.605371257232     IErMin=11 ErrMin= 4.83D-07
 ErrMax= 4.83D-07  0.00D+00 EMaxC= 1.00D-01 BMatC= 1.05D-10 BMatP= 1.05D-09
 IDIUse=1 WtCom= 1.00D+00 WtEn= 0.00D+00
 Coeff-Com: -0.212D-04 0.295D-04 0.200D-04 0.229D-03 0.157D-02 0.177D-02
 Coeff-Com: -0.387D-02-0.285D-01-0.643D-01 0.140D+00 0.953D+00
 Coeff:     -0.212D-04 0.295D-04 0.200D-04 0.229D-03 0.157D-02 0.177D-02
 Coeff:     -0.387D-02-0.285D-01-0.643D-01 0.140D+00 0.953D+00
 Gap=     0.295 Goal=   None    Shift=    0.000
 RMSDP=1.72D-07 MaxDP=5.87D-06 DE=-3.52D-09 OVMax= 2.07D-05

 Cycle  12  Pass 1  IDiag  1:
 RMSU=  5.97D-08    CP:  1.01D+00  3.00D+00  1.11D+00  8.89D-01  9.94D-01
                    CP:  1.10D+00  1.32D+00  1.39D+00  1.58D+00  1.31D+00
                    CP:  1.27D+00
 E= -942.605371257625     Delta-E=       -0.000000000394 Rises=F Damp=F
 DIIS: error= 1.76D-07 at cycle  12 NSaved=  12.
 NSaved=12 IEnMin=12 EnMin= -942.605371257625     IErMin=12 ErrMin= 1.76D-07
 ErrMax= 1.76D-07  0.00D+00 EMaxC= 1.00D-01 BMatC= 1.28D-11 BMatP= 1.05D-10
 IDIUse=1 WtCom= 1.00D+00 WtEn= 0.00D+00
 Coeff-Com: -0.582D-05 0.717D-05-0.153D-04-0.582D-04-0.457D-03-0.235D-03
 Coeff-Com:  0.545D-02 0.592D-02-0.516D-01-0.728D-01 0.176D+00 0.938D+00
 Coeff:     -0.582D-05 0.717D-05-0.153D-04-0.582D-04-0.457D-03-0.235D-03
 Coeff:      0.545D-02 0.592D-02-0.516D-01-0.728D-01 0.176D+00 0.938D+00
 Gap=     0.295 Goal=   None    Shift=    0.000
 RMSDP=6.59D-08 MaxDP=2.25D-06 DE=-3.94D-10 OVMax= 8.02D-06

 Cycle  13  Pass 1  IDiag  1:
 RMSU=  2.02D-08    CP:  1.01D+00  3.00D+00  1.11D+00  8.89D-01  9.94D-01
                    CP:  1.10D+00  1.32D+00  1.40D+00  1.60D+00  1.37D+00
                    CP:  1.45D+00  1.19D+00
 E= -942.605371257713     Delta-E=       -0.000000000087 Rises=F Damp=F
 DIIS: error= 6.64D-08 at cycle  13 NSaved=  13.
 NSaved=13 IEnMin=13 EnMin= -942.605371257713     IErMin=13 ErrMin= 6.64D-08
 ErrMax= 6.64D-08  0.00D+00 EMaxC= 1.00D-01 BMatC= 2.57D-12 BMatP= 1.28D-11
 IDIUse=1 WtCom= 1.00D+00 WtEn= 0.00D+00
 Coeff-Com:  0.223D-05-0.329D-05-0.776D-05-0.403D-04-0.322D-03-0.265D-03
 Coeff-Com:  0.243D-02 0.555D-02-0.840D-02-0.381D-01-0.804D-01 0.297D+00
 Coeff-Com:  0.822D+00
 Coeff:      0.223D-05-0.329D-05-0.776D-05-0.403D-04-0.322D-03-0.265D-03
 Coeff:      0.243D-02 0.555D-02-0.840D-02-0.381D-01-0.804D-01 0.297D+00
 Coeff:      0.822D+00
 Gap=     0.295 Goal=   None    Shift=    0.000
 RMSDP=1.88D-08 MaxDP=5.80D-07 DE=-8.73D-11 OVMax= 1.93D-06

 Cycle  14  Pass 1  IDiag  1:
 RMSU=  7.35D-09    CP:  1.01D+00  3.00D+00  1.11D+00  8.89D-01  9.94D-01
                    CP:  1.10D+00  1.32D+00  1.40D+00  1.61D+00  1.39D+00
                    CP:  1.51D+00  1.34D+00  1.06D+00
 E= -942.605371257713     Delta-E=        0.000000000000 Rises=F Damp=F
 DIIS: error= 2.15D-08 at cycle  14 NSaved=  14.
 NSaved=14 IEnMin=14 EnMin= -942.605371257713     IErMin=14 ErrMin= 2.15D-08
 ErrMax= 2.15D-08  0.00D+00 EMaxC= 1.00D-01 BMatC= 1.37D-13 BMatP= 2.57D-12
 IDIUse=1 WtCom= 1.00D+00 WtEn= 0.00D+00
 Coeff-Com:  0.738D-05-0.987D-05 0.484D-05 0.233D-05-0.271D-04-0.608D-04
 Coeff-Com: -0.222D-03 0.412D-03 0.411D-02 0.260D-02-0.358D-01-0.352D-01
 Coeff-Com:  0.115D+00 0.949D+00
 Coeff:      0.738D-05-0.987D-05 0.484D-05 0.233D-05-0.271D-04-0.608D-04
 Coeff:     -0.222D-03 0.412D-03 0.411D-02 0.260D-02-0.358D-01-0.352D-01
 Coeff:      0.115D+00 0.949D+00
 Gap=     0.295 Goal=   None    Shift=    0.000
 RMSDP=5.37D-09 MaxDP=1.16D-07 DE=-2.27D-13 OVMax= 4.34D-07

 Error on total polarization charges =  0.03010
 SCF Done:  E(RwB97XD) =  -942.605371258     A.U. after   14 cycles
            NFock= 14  Conv=0.54D-08     -V/T= 2.0063
 KE= 9.366859315100D+02 PE=-3.887928937617D+03 EE= 1.171097744975D+03
 SMD-CDS (non-electrostatic) energy       (kcal/mol) =      -3.51
 (included in total energy above)
 Leave Link  502 at Wed Dec 14 18:17:48 2022, MaxMem=  4294967296 cpu:             552.4 elap:              35.7
 (Enter /n/sw/g16_nehalem/g16/l601.exe)
 Copying SCF densities to generalized density rwf, IOpCl= 0 IROHF=0.

 **********************************************************************

            Population analysis using the SCF density.

 **********************************************************************

 Orbital symmetries:
       Occupied  (A) (A) (A) (A) (A) (A) (A) (A) (A) (A) (A) (A)
                 (A) (A) (A) (A) (A) (A) (A) (A) (A) (A) (A) (A)
                 (A) (A) (A) (A) (A) (A) (A) (A) (A) (A) (A) (A)
                 (A) (A) (A) (A) (A) (A) (A) (A) (A) (A) (A) (A)
                 (A) (A) (A)
       Virtual   (A) (A) (A) (A) (A) (A) (A) (A) (A) (A) (A) (A)
                 (A) (A) (A) (A) (A) (A) (A) (A) (A) (A) (A) (A)
                 (A) (A) (A) (A) (A) (A) (A) (A) (A) (A) (A) (A)
                 (A) (A) (A) (A) (A) (A) (A) (A) (A) (A) (A) (A)
                 (A) (A) (A) (A) (A) (A) (A) (A) (A) (A) (A) (A)
                 (A) (A) (A) (A) (A) (A) (A) (A) (A) (A) (A) (A)
                 (A) (A) (A) (A) (A) (A) (A) (A) (A) (A) (A) (A)
                 (A) (A) (A) (A) (A) (A) (A) (A) (A) (A) (A) (A)
                 (A) (A) (A) (A) (A) (A) (A) (A) (A) (A) (A) (A)
                 (A) (A) (A) (A) (A) (A) (A) (A) (A) (A) (A) (A)
                 (A) (A) (A) (A) (A) (A) (A) (A) (A) (A) (A) (A)
                 (A) (A) (A) (A) (A) (A) (A) (A) (A) (A) (A) (A)
                 (A) (A) (A) (A) (A) (A) (A) (A) (A) (A) (A) (A)
                 (A) (A) (A) (A) (A) (A) (A) (A) (A)
 The electronic state is 1-A.
 Alpha  occ. eigenvalues -- -101.58904 -19.27414 -14.52273 -10.43479 -10.41560
 Alpha  occ. eigenvalues --  -10.33084 -10.31388 -10.30293 -10.30009 -10.29952
 Alpha  occ. eigenvalues --  -10.29818 -10.29375  -9.45744  -7.20053  -7.19979
 Alpha  occ. eigenvalues --   -7.19972  -1.17525  -1.08031  -0.94602  -0.88953
 Alpha  occ. eigenvalues --   -0.85413  -0.83172  -0.79356  -0.77556  -0.75761
 Alpha  occ. eigenvalues --   -0.71183  -0.68869  -0.63052  -0.61319  -0.58586
 Alpha  occ. eigenvalues --   -0.57070  -0.55942  -0.55339  -0.53024  -0.52123
 Alpha  occ. eigenvalues --   -0.51050  -0.50057  -0.49123  -0.48504  -0.47224
 Alpha  occ. eigenvalues --   -0.46271  -0.45175  -0.44412  -0.42318  -0.42178
 Alpha  occ. eigenvalues --   -0.40924  -0.36550  -0.33208  -0.30239  -0.30194
 Alpha  occ. eigenvalues --   -0.29767
 Alpha virt. eigenvalues --   -0.00291   0.08106   0.10740   0.15634   0.17161
 Alpha virt. eigenvalues --    0.18692   0.19786   0.21561   0.23142   0.23685
 Alpha virt. eigenvalues --    0.23806   0.24770   0.25891   0.26391   0.26922
 Alpha virt. eigenvalues --    0.27370   0.28563   0.29673   0.30294   0.30648
 Alpha virt. eigenvalues --    0.31699   0.32265   0.32860   0.35979   0.38569
 Alpha virt. eigenvalues --    0.40709   0.41127   0.43231   0.45457   0.52410
 Alpha virt. eigenvalues --    0.55074   0.58139   0.58759   0.59703   0.60766
 Alpha virt. eigenvalues --    0.61346   0.63237   0.64467   0.65050   0.67028
 Alpha virt. eigenvalues --    0.68436   0.69484   0.70387   0.71284   0.72680
 Alpha virt. eigenvalues --    0.73220   0.75480   0.75953   0.77116   0.78525
 Alpha virt. eigenvalues --    0.80133   0.81598   0.82429   0.83870   0.85048
 Alpha virt. eigenvalues --    0.86427   0.88267   0.90900   0.91847   0.92420
 Alpha virt. eigenvalues --    0.94543   0.95488   0.96811   0.97507   0.98380
 Alpha virt. eigenvalues --    0.99008   0.99975   1.01156   1.01689   1.02354
 Alpha virt. eigenvalues --    1.02788   1.04404   1.05432   1.05669   1.06408
 Alpha virt. eigenvalues --    1.08702   1.09326   1.10079   1.11236   1.12700
 Alpha virt. eigenvalues --    1.14516   1.14795   1.16564   1.18476   1.21593
 Alpha virt. eigenvalues --    1.23077   1.27096   1.31982   1.33965   1.34925
 Alpha virt. eigenvalues --    1.39804   1.40838   1.42256   1.47603   1.48543
 Alpha virt. eigenvalues --    1.50991   1.52520   1.57895   1.62223   1.67962
 Alpha virt. eigenvalues --    1.70333   1.70435   1.73193   1.78511   1.81333
 Alpha virt. eigenvalues --    1.84060   1.85715   1.86416   1.89105   1.92575
 Alpha virt. eigenvalues --    1.92892   1.97097   1.97494   1.98882   2.02420
 Alpha virt. eigenvalues --    2.03367   2.04815   2.06794   2.08616   2.10320
 Alpha virt. eigenvalues --    2.10749   2.12579   2.18147   2.22498   2.24791
 Alpha virt. eigenvalues --    2.27710   2.29278   2.30686   2.32599   2.35204
 Alpha virt. eigenvalues --    2.36903   2.38370   2.40582   2.42482   2.44821
 Alpha virt. eigenvalues --    2.46430   2.49777   2.51142   2.51963   2.57859
 Alpha virt. eigenvalues --    2.61467   2.65702   2.68993   2.70089   2.72144
 Alpha virt. eigenvalues --    2.81147   2.82694   2.86487   2.92004   3.00985
 Alpha virt. eigenvalues --    3.05202   3.11700   3.23009   4.06494   4.07720
 Alpha virt. eigenvalues --    4.24385   4.31186   4.32296   4.39702   4.45156
 Alpha virt. eigenvalues --    4.47120   4.58643   4.60526   4.65617   4.70953
          Condensed to atoms (all electrons):
               1          2          3          4          5          6
     1  C    5.088789   0.337749  -0.045003  -0.016132  -0.037048   0.352087
     2  C    0.337749   5.128274   0.382685  -0.057990  -0.012133  -0.048716
     3  C   -0.045003   0.382685   4.754632   0.601576   0.014736  -0.019107
     4  C   -0.016132  -0.057990   0.601576   5.282181   0.044490  -0.016663
     5  C   -0.037048  -0.012133   0.014736   0.044490   4.865941   0.360941
     6  C    0.352087  -0.048716  -0.019107  -0.016663   0.360941   5.152740
     7  H   -0.031930   0.381594  -0.036092  -0.004126   0.000006  -0.004763
     8  H   -0.031675   0.383575  -0.035041   0.004990   0.000124   0.004429
     9  H    0.382868  -0.034087  -0.005272   0.000418  -0.005133  -0.040264
    10  H    0.385449  -0.031397   0.004637   0.000109   0.003891  -0.031130
    11  H    0.000347  -0.005731  -0.037947   0.378056  -0.002948  -0.001973
    12  H    0.000055   0.004300  -0.031494   0.372795  -0.003385   0.000576
    13  H   -0.001151   0.000115  -0.008718  -0.017748   0.376996  -0.025710
    14  H   -0.033476  -0.001525  -0.003092  -0.001393  -0.040389   0.374790
    15  H   -0.023064   0.003356   0.001009   0.001232  -0.027802   0.366470
    16  C    0.000046  -0.060998   0.377450  -0.056988  -0.002695  -0.000130
    17  H   -0.000123   0.004143  -0.032417  -0.004054  -0.000211   0.000029
    18  H    0.000019  -0.003637  -0.026471   0.002080   0.000147  -0.000016
    19  H    0.001409  -0.000966  -0.034171  -0.000999  -0.000444   0.000103
    20  N    0.002814   0.000260  -0.002800  -0.033153   0.335325  -0.036236
    21  H    0.000112  -0.000010   0.000006  -0.000403  -0.029954  -0.001635
    22  C   -0.000067  -0.000001   0.000069   0.000638  -0.020931   0.001454
    23  O    0.000000   0.000000   0.000001   0.000023   0.003230  -0.000132
    24  C    0.000010  -0.000005  -0.000115  -0.002525   0.006219   0.000091
    25  H   -0.000003   0.000003  -0.000009   0.001772  -0.000851   0.000081
    26  H    0.000005   0.000000   0.000008   0.000085  -0.002752   0.000045
    27  H    0.000000   0.000000   0.000001   0.000011   0.000104  -0.000002
    28  Cl  -0.003501   0.000137   0.000438   0.001163   0.020862  -0.027551
               7          8          9         10         11         12
     1  C   -0.031930  -0.031675   0.382868   0.385449   0.000347   0.000055
     2  C    0.381594   0.383575  -0.034087  -0.031397  -0.005731   0.004300
     3  C   -0.036092  -0.035041  -0.005272   0.004637  -0.037947  -0.031494
     4  C   -0.004126   0.004990   0.000418   0.000109   0.378056   0.372795
     5  C    0.000006   0.000124  -0.005133   0.003891  -0.002948  -0.003385
     6  C   -0.004763   0.004429  -0.040264  -0.031130  -0.001973   0.000576
     7  H    0.520458  -0.027199   0.004063  -0.004173   0.003001   0.000018
     8  H   -0.027199   0.513613  -0.003412  -0.001960  -0.000025  -0.000138
     9  H    0.004063  -0.003412   0.516746  -0.025730   0.000033   0.000008
    10  H   -0.004173  -0.001960  -0.025730   0.506638  -0.000075   0.000005
    11  H    0.003001  -0.000025   0.000033  -0.000075   0.480955  -0.028474
    12  H    0.000018  -0.000138   0.000008   0.000005  -0.028474   0.481996
    13  H    0.000036  -0.000072   0.002198  -0.000025   0.000901  -0.000633
    14  H    0.003000  -0.000043   0.004195  -0.002652   0.001973   0.000068
    15  H    0.000013  -0.000057  -0.002271  -0.002349   0.000103  -0.000026
    16  C    0.004044  -0.004602   0.001334  -0.000068   0.004468  -0.006675
    17  H   -0.000127   0.000067  -0.000081   0.000003   0.000073   0.003623
    18  H   -0.000048   0.002179   0.000036  -0.000006  -0.000161   0.000027
    19  H    0.000033   0.000083   0.002010  -0.000036  -0.000109   0.000244
    20  N   -0.000017  -0.000002   0.000143  -0.000082  -0.001715  -0.001240
    21  H   -0.000001   0.000000   0.000007  -0.000006   0.000441  -0.000025
    22  C    0.000001   0.000000   0.000005   0.000001  -0.000207   0.001194
    23  O    0.000000   0.000000   0.000000   0.000000   0.000001  -0.000044
    24  C    0.000000   0.000000   0.000000   0.000000   0.000085  -0.000157
    25  H    0.000000   0.000000  -0.000001   0.000000  -0.000037   0.002954
    26  H    0.000000   0.000000  -0.000008   0.000000  -0.000003  -0.000020
    27  H    0.000000   0.000000   0.000000   0.000000  -0.000001   0.000012
    28  Cl  -0.000002   0.000007   0.006642   0.000016  -0.000011   0.000012
              13         14         15         16         17         18
     1  C   -0.001151  -0.033476  -0.023064   0.000046  -0.000123   0.000019
     2  C    0.000115  -0.001525   0.003356  -0.060998   0.004143  -0.003637
     3  C   -0.008718  -0.003092   0.001009   0.377450  -0.032417  -0.026471
     4  C   -0.017748  -0.001393   0.001232  -0.056988  -0.004054   0.002080
     5  C    0.376996  -0.040389  -0.027802  -0.002695  -0.000211   0.000147
     6  C   -0.025710   0.374790   0.366470  -0.000130   0.000029  -0.000016
     7  H    0.000036   0.003000   0.000013   0.004044  -0.000127  -0.000048
     8  H   -0.000072  -0.000043  -0.000057  -0.004602   0.000067   0.002179
     9  H    0.002198   0.004195  -0.002271   0.001334  -0.000081   0.000036
    10  H   -0.000025  -0.002652  -0.002349  -0.000068   0.000003  -0.000006
    11  H    0.000901   0.001973   0.000103   0.004468   0.000073  -0.000161
    12  H   -0.000633   0.000068  -0.000026  -0.006675   0.003623   0.000027
    13  H    0.409431   0.002579   0.000020   0.002691   0.000232  -0.000096
    14  H    0.002579   0.503693  -0.020296   0.000028   0.000000   0.000000
    15  H    0.000020  -0.020296   0.446028  -0.000017   0.000000   0.000001
    16  C    0.002691   0.000028  -0.000017   5.199128   0.377876   0.370636
    17  H    0.000232   0.000000   0.000000   0.377876   0.500791  -0.022761
    18  H   -0.000096   0.000000   0.000001   0.370636  -0.022761   0.494431
    19  H    0.002067   0.000007  -0.000044   0.372786  -0.023533  -0.025201
    20  N   -0.033301  -0.002705  -0.003309   0.000118  -0.000004  -0.000004
    21  H    0.002504   0.002989   0.000575  -0.000001   0.000000   0.000000
    22  C   -0.005617   0.000016  -0.000127  -0.000015  -0.000011   0.000000
    23  O    0.000105  -0.000004   0.000002   0.000000   0.000000   0.000000
    24  C    0.005400  -0.000006   0.000019  -0.000105  -0.000066   0.000002
    25  H   -0.000637  -0.000003   0.000001   0.000350   0.001103   0.000004
    26  H    0.000654  -0.000005  -0.000014  -0.000017   0.000006   0.000000
    27  H    0.000041   0.000000   0.000000   0.000001   0.000002   0.000000
    28  Cl  -0.000931   0.001476   0.006628  -0.000207  -0.000003   0.000002
              19         20         21         22         23         24
     1  C    0.001409   0.002814   0.000112  -0.000067   0.000000   0.000010
     2  C   -0.000966   0.000260  -0.000010  -0.000001   0.000000  -0.000005
     3  C   -0.034171  -0.002800   0.000006   0.000069   0.000001  -0.000115
     4  C   -0.000999  -0.033153  -0.000403   0.000638   0.000023  -0.002525
     5  C   -0.000444   0.335325  -0.029954  -0.020931   0.003230   0.006219
     6  C    0.000103  -0.036236  -0.001635   0.001454  -0.000132   0.000091
     7  H    0.000033  -0.000017  -0.000001   0.000001   0.000000   0.000000
     8  H    0.000083  -0.000002   0.000000   0.000000   0.000000   0.000000
     9  H    0.002010   0.000143   0.000007   0.000005   0.000000   0.000000
    10  H   -0.000036  -0.000082  -0.000006   0.000001   0.000000   0.000000
    11  H   -0.000109  -0.001715   0.000441  -0.000207   0.000001   0.000085
    12  H    0.000244  -0.001240  -0.000025   0.001194  -0.000044  -0.000157
    13  H    0.002067  -0.033301   0.002504  -0.005617   0.000105   0.005400
    14  H    0.000007  -0.002705   0.002989   0.000016  -0.000004  -0.000006
    15  H   -0.000044  -0.003309   0.000575  -0.000127   0.000002   0.000019
    16  C    0.372786   0.000118  -0.000001  -0.000015   0.000000  -0.000105
    17  H   -0.023533  -0.000004   0.000000  -0.000011   0.000000  -0.000066
    18  H   -0.025201  -0.000004   0.000000   0.000000   0.000000   0.000002
    19  H    0.499016   0.000043   0.000000  -0.000001   0.000000   0.000011
    20  N    0.000043   7.045259   0.293645   0.222912  -0.091935  -0.114948
    21  H    0.000000   0.293645   0.308030  -0.007070   0.007772   0.005215
    22  C   -0.000001   0.222912  -0.007070   4.258419   0.622454   0.365787
    23  O    0.000000  -0.091935   0.007772   0.622454   8.015647  -0.076663
    24  C    0.000011  -0.114948   0.005215   0.365787  -0.076663   5.392818
    25  H   -0.000089   0.000002  -0.000180  -0.020318   0.001370   0.353832
    26  H    0.000004   0.000460  -0.000181  -0.019371   0.000900   0.343190
    27  H    0.000000   0.004306  -0.000082  -0.024843   0.002424   0.365987
    28  Cl   0.000082  -0.023182  -0.000125   0.003166  -0.000036  -0.015247
              25         26         27         28
     1  C   -0.000003   0.000005   0.000000  -0.003501
     2  C    0.000003   0.000000   0.000000   0.000137
     3  C   -0.000009   0.000008   0.000001   0.000438
     4  C    0.001772   0.000085   0.000011   0.001163
     5  C   -0.000851  -0.002752   0.000104   0.020862
     6  C    0.000081   0.000045  -0.000002  -0.027551
     7  H    0.000000   0.000000   0.000000  -0.000002
     8  H    0.000000   0.000000   0.000000   0.000007
     9  H   -0.000001  -0.000008   0.000000   0.006642
    10  H    0.000000   0.000000   0.000000   0.000016
    11  H   -0.000037  -0.000003  -0.000001  -0.000011
    12  H    0.002954  -0.000020   0.000012   0.000012
    13  H   -0.000637   0.000654   0.000041  -0.000931
    14  H   -0.000003  -0.000005   0.000000   0.001476
    15  H    0.000001  -0.000014   0.000000   0.006628
    16  C    0.000350  -0.000017   0.000001  -0.000207
    17  H    0.001103   0.000006   0.000002  -0.000003
    18  H    0.000004   0.000000   0.000000   0.000002
    19  H   -0.000089   0.000004   0.000000   0.000082
    20  N    0.000002   0.000460   0.004306  -0.023182
    21  H   -0.000180  -0.000181  -0.000082  -0.000125
    22  C   -0.020318  -0.019371  -0.024843   0.003166
    23  O    0.001370   0.000900   0.002424  -0.000036
    24  C    0.353832   0.343190   0.365987  -0.015247
    25  H    0.476107  -0.019972  -0.017837   0.000000
    26  H   -0.019972   0.445193  -0.014148   0.022089
    27  H   -0.017837  -0.014148   0.457165   0.000200
    28  Cl   0.000000   0.022089   0.000200  17.846481
 Mulliken charges:
               1
     1  C   -0.328586
     2  C   -0.368996
     3  C    0.180502
     4  C   -0.479446
     5  C    0.153664
     6  C   -0.359807
     7  H    0.192211
     8  H    0.195160
     9  H    0.195554
    10  H    0.198940
    11  H    0.208976
    12  H    0.204425
    13  H    0.288669
    14  H    0.210774
    15  H    0.253921
    16  C   -0.578439
    17  H    0.195442
    18  H    0.208837
    19  H    0.207695
    20  N   -0.560655
    21  H    0.418377
    22  C    0.622463
    23  O   -0.485116
    24  C   -0.628831
    25  H    0.222358
    26  H    0.243852
    27  H    0.226660
    28  Cl  -0.838605
 Sum of Mulliken charges =   0.00000
 Mulliken charges with hydrogens summed into heavy atoms:
               1
     1  C    0.065908
     2  C    0.018375
     3  C    0.180502
     4  C   -0.066045
     5  C    0.442333
     6  C    0.104888
    16  C    0.033535
    20  N   -0.142278
    22  C    0.622463
    23  O   -0.485116
    24  C    0.064040
    28  Cl  -0.838605
 Electronic spatial extent (au):  <R**2>=           2720.4345
 Charge=              0.0000 electrons
 Dipole moment (field-independent basis, Debye):
    X=              7.9169    Y=             -8.5158    Z=             -2.8703  Tot=             11.9764
 Quadrupole moment (field-independent basis, Debye-Ang):
   XX=            -86.4311   YY=           -104.4221   ZZ=            -72.6103
   XY=              7.8457   XZ=             -1.5657   YZ=            -11.5512
 Traceless Quadrupole moment (field-independent basis, Debye-Ang):
   XX=              1.3900   YY=            -16.6010   ZZ=             15.2109
   XY=              7.8457   XZ=             -1.5657   YZ=            -11.5512
 Octapole moment (field-independent basis, Debye-Ang**2):
  XXX=             61.2902  YYY=            -66.6209  ZZZ=            -20.4359  XYY=             30.6951
  XXY=              4.5669  XXZ=             17.0926  XZZ=              3.0666  YZZ=            -11.5086
  YYZ=            -16.5523  XYZ=             13.6686
 Hexadecapole moment (field-independent basis, Debye-Ang**3):
 XXXX=          -2007.9784 YYYY=          -1234.2211 ZZZZ=           -536.9154 XXXY=            -26.8589
 XXXZ=            -44.7078 YYYX=             95.6997 YYYZ=            -60.8298 ZZZX=             16.8791
 ZZZY=            -11.2309 XXYY=           -560.5492 XXZZ=           -397.4644 YYZZ=           -277.1455
 XXYZ=            -50.6162 YYXZ=              7.3718 ZZXY=              9.5674
 N-N= 8.375398898740D+02 E-N=-3.887928941258D+03  KE= 9.366859315100D+02
 No NMR shielding tensors so no spin-rotation constants.
 Leave Link  601 at Wed Dec 14 18:17:48 2022, MaxMem=  4294967296 cpu:               2.7 elap:               0.2
 (Enter /n/sw/g16_nehalem/g16/l701.exe)
 ... and contract with generalized density number  0.
 Compute integral first derivatives.
 R6Disp: Adding Grimme-D2 dispersion energy 1st derivatives to the gradient.
 D1PCM: PCM CHGder 1st derivatives, ID1Alg=3 FixD1E=F DoIter=F DoCFld=F I1PDM=0.
 GePol: Maximum number of non-zero 1st derivatives   =     384
 Leave Link  701 at Wed Dec 14 18:17:51 2022, MaxMem=  4294967296 cpu:              36.4 elap:               2.4
 (Enter /n/sw/g16_nehalem/g16/l702.exe)
 L702 exits ... SP integral derivatives will be done elsewhere.
 Leave Link  702 at Wed Dec 14 18:17:51 2022, MaxMem=  4294967296 cpu:               0.9 elap:               0.1
 (Enter /n/sw/g16_nehalem/g16/l703.exe)
 Integral derivatives from FoFJK, PRISM(SPDF).
 Compute integral first derivatives, UseDBF=F ICtDFT=           0.
 Calling FoFJK, ICntrl=      2127 FMM=F ISym2X=0 I1Cent= 0 IOpClX= 0 NMat=1 NMatS=1 NMatT=0.
 FoFJK:  IHMeth= 1 ICntrl=    2127 DoSepK=T KAlg= 0 I1Cent=           0 FoldK=F
 IRaf=         1 NMat=       1 IRICut=       1 DoRegI=T DoRafI=F ISym2E= 0 IDoP0=0 IntGTp=1.
 FoFCou: FMM=F IPFlag=           0 FMFlag=      100000 FMFlg1=         800
         NFxFlg=           0 DoJE=F BraDBF=F KetDBF=F FulRan=T
         wScrn=  0.000000 ICntrl=      2527 IOpCl=  0 I1Cent=           0 NGrid=           0
         NMat0=    1 NMatS0=      1 NMatT0=    0 NMatD0=    1 NMtDS0=    0 NMtDT0=    0
 Symmetry not used in FoFCou.
 Leave Link  703 at Wed Dec 14 18:17:57 2022, MaxMem=  4294967296 cpu:              89.4 elap:               6.0
 (Enter /n/sw/g16_nehalem/g16/l716.exe)
 Dipole        = 3.11473006D+00-3.35038289D+00-1.12927436D+00
 ***** Axes restored to original set *****
 -------------------------------------------------------------------
 Center     Atomic                   Forces (Hartrees/Bohr)
 Number     Number              X              Y              Z
 -------------------------------------------------------------------
      1        6          -0.000013409   -0.000003019   -0.000003106
      2        6           0.000008021   -0.000011372   -0.000001060
      3        6          -0.000027999    0.000003896   -0.000009209
      4        6           0.009303926   -0.015064638    0.000777443
      5        6          -0.005166035    0.005117712   -0.005724944
      6        6          -0.000038192   -0.000012104    0.000007412
      7        1          -0.000013138    0.000003355   -0.000013910
      8        1           0.000006639    0.000000423   -0.000027406
      9        1           0.000008257   -0.000012673   -0.000015904
     10        1          -0.000015990   -0.000002643   -0.000018830
     11        1          -0.000017855    0.000029365    0.000005283
     12        1           0.000017182   -0.000015920    0.000017108
     13        1           0.000009079   -0.000019856    0.000003020
     14        1          -0.000020105   -0.000016162   -0.000015868
     15        1           0.000013985   -0.000012212    0.000015990
     16        6          -0.000032504    0.000087993   -0.000018203
     17        1           0.000013876   -0.000018264    0.000005095
     18        1           0.000027899   -0.000026609   -0.000022970
     19        1           0.000018673   -0.000021570   -0.000009535
     20        7           0.000040280    0.000042505    0.000055485
     21        1          -0.000003777   -0.000009826    0.000019163
     22        6           0.000040389    0.000034206    0.000020919
     23        8          -0.000021606   -0.000000667    0.000033174
     24        6          -0.000006365   -0.000037577   -0.000023803
     25        1           0.000004835    0.000019556    0.000035303
     26        1           0.000019551   -0.000000756    0.000024310
     27        1           0.000000383    0.000014944    0.000018052
     28       17          -0.004156000    0.009931912    0.004866990
 -------------------------------------------------------------------
 Cartesian Forces:  Max     0.015064638 RMS     0.002534069
 Leave Link  716 at Wed Dec 14 18:17:57 2022, MaxMem=  4294967296 cpu:               1.0 elap:               0.1
 (Enter /n/sw/g16_nehalem/g16/l103.exe)

 GradGradGradGradGradGradGradGradGradGradGradGradGradGradGradGradGradGrad
 Berny optimization.
 FormGI is forming the generalized inverse of G from B-inverse, IUseBI=4.
 Internal  Forces:  Max     0.017106669 RMS     0.001782174
 Search for a local minimum.
 Step number   1 out of a maximum of  141
 All quantities printed in internal units (Hartrees-Bohrs-Radians)
 RMS Force = .17028D-04 SwitMx=.10000D-02 MixMth= 2
 Mixed Optimization -- En-DIIS/RFO-DIIS
 Second derivative matrix not updated -- first step.
 ITU=  0
     Eigenvalues ---    0.00233   0.00428   0.00551   0.00768   0.00799
     Eigenvalues ---    0.00812   0.01057   0.01117   0.01360   0.01493
     Eigenvalues ---    0.01750   0.02074   0.02611   0.02787   0.02913
     Eigenvalues ---    0.03709   0.04318   0.04687   0.05151   0.05374
     Eigenvalues ---    0.06249   0.07096   0.07184   0.07432   0.07452
     Eigenvalues ---    0.07616   0.08160   0.08628   0.09711   0.12129
     Eigenvalues ---    0.12471   0.13038   0.15722   0.16000   0.16000
     Eigenvalues ---    0.16000   0.16000   0.16000   0.16000   0.16000
     Eigenvalues ---    0.16000   0.16000   0.21813   0.21904   0.21984
     Eigenvalues ---    0.22000   0.24444   0.24655   0.24999   0.25000
     Eigenvalues ---    0.27831   0.29947   0.32241   0.32390   0.32640
     Eigenvalues ---    0.32744   0.33852   0.34038   0.34054   0.34058
     Eigenvalues ---    0.34169   0.34231   0.34232   0.34312   0.34389
     Eigenvalues ---    0.34393   0.34398   0.34814   0.35123   0.35221
     Eigenvalues ---    0.35981   0.43219   0.44777   0.55620   0.59393
     Eigenvalues ---    0.999321000.000001000.000001000.000001000.00000
     Eigenvalues --- 1000.000001000.000001000.000001000.000001000.00000
     Eigenvalues --- 1000.000001000.000001000.000001000.000001000.00000
     Eigenvalues --- 1000.000001000.000001000.000001000.000001000.00000
     Eigenvalues --- 1000.000001000.000001000.000001000.000001000.00000
     Eigenvalues --- 1000.000001000.000001000.000001000.000001000.00000
     Eigenvalues --- 1000.000001000.000001000.000001000.000001000.00000
     Eigenvalues --- 1000.000001000.000001000.000001000.000001000.00000
     Eigenvalues --- 1000.000001000.000001000.000001000.000001000.00000
     Eigenvalues --- 1000.000001000.000001000.000001000.000001000.00000
     Eigenvalues --- 1000.000001000.000001000.000001000.000001000.00000
     Eigenvalues --- 1000.00000
 RFO step:  Lambda=-3.32324210D-07 EMin= 2.33441538D-03
 Linear search not attempted -- first point.
 Iteration  1 RMS(Cart)=  0.00191185 RMS(Int)=  0.00000092
 Iteration  2 RMS(Cart)=  0.00000152 RMS(Int)=  0.00000010
 Iteration  3 RMS(Cart)=  0.00000000 RMS(Int)=  0.00000010
 Iteration  1 RMS(Cart)=  0.00000004 RMS(Int)=  0.00000000
 ITry= 1 IFail=0 DXMaxC= 7.58D-03 DCOld= 1.00D+10 DXMaxT= 3.00D-01 DXLimC= 3.00D+00 Rises=F
 Variable       Old X    -DE/DX   Delta X   Delta X   Delta X     New X
                                 (Linear)    (Quad)   (Total)
    R1        2.91982   0.00057   0.00000  -0.00007  -0.00007   2.91975
    R2        2.87996   0.00019   0.00000  -0.00009  -0.00009   2.87987
    R3        2.07046  -0.00001   0.00000  -0.00003  -0.00003   2.07044
    R4        2.06679   0.00000   0.00000  -0.00001  -0.00001   2.06679
    R5        2.83669   0.00015   0.00000   0.00005   0.00005   2.83675
    R6        2.06940  -0.00001   0.00000  -0.00002  -0.00002   2.06939
    R7        2.06806   0.00000   0.00000   0.00001   0.00001   2.06807
    R8        2.54585   0.00000   0.00000  -0.00001  -0.00001   2.54584
    R9        2.82988  -0.00001   0.00000  -0.00003  -0.00003   2.82986
   R10        4.34637   0.01711   0.00000   0.00000   0.00000   4.34637
   R11        2.05317  -0.00001   0.00000  -0.00003  -0.00003   2.05315
   R12        2.05476   0.00000   0.00000   0.00001   0.00001   2.05477
   R13        2.83431  -0.00013   0.00000  -0.00021  -0.00021   2.83410
   R14        2.03216   0.00096   0.00000  -0.00002  -0.00002   2.03214
   R15        2.51424  -0.00009   0.00000  -0.00015  -0.00015   2.51409
   R16        5.10226   0.00960   0.00000   0.00000   0.00000   5.10226
   R17        2.07232   0.00002   0.00000   0.00005   0.00005   2.07237
   R18        2.06671  -0.00002   0.00000  -0.00006  -0.00006   2.06665
   R19        4.59426   0.00203   0.00000   0.00024   0.00024   4.59449
   R20        2.06663   0.00001   0.00000   0.00004   0.00004   2.06667
   R21        2.07240   0.00002   0.00000   0.00006   0.00006   2.07246
   R22        2.07580  -0.00002   0.00000  -0.00006  -0.00006   2.07574
   R23        1.92235  -0.00001   0.00000  -0.00002  -0.00002   1.92233
   R24        2.67401  -0.00001   0.00000  -0.00003  -0.00003   2.67398
   R25        2.28666   0.00001   0.00000   0.00001   0.00001   2.28667
   R26        2.82803  -0.00002   0.00000  -0.00005  -0.00005   2.82799
   R27        2.06942   0.00000   0.00000  -0.00001  -0.00001   2.06941
   R28        2.07266   0.00000   0.00000  -0.00001  -0.00001   2.07265
   R29        2.05978   0.00000   0.00000   0.00000   0.00000   2.05978
    A1        1.95032   0.00166   0.00000   0.00002   0.00002   1.95034
    A2        1.92644  -0.00031   0.00000  -0.00007  -0.00007   1.92636
    A3        1.90815  -0.00066   0.00000   0.00008   0.00008   1.90823
    A4        1.90387  -0.00054   0.00000   0.00008   0.00008   1.90395
    A5        1.90286  -0.00046   0.00000  -0.00013  -0.00013   1.90274
    A6        1.87033   0.00026   0.00000   0.00002   0.00002   1.87036
    A7        1.88453   0.00168   0.00000   0.00009   0.00009   1.88462
    A8        1.90333  -0.00025   0.00000  -0.00008  -0.00008   1.90325
    A9        1.91378  -0.00070   0.00000  -0.00006  -0.00005   1.91373
   A10        1.92891  -0.00052   0.00000   0.00006   0.00006   1.92897
   A11        1.94297  -0.00045   0.00000   0.00002   0.00002   1.94299
   A12        1.89007   0.00023   0.00000  -0.00004  -0.00004   1.89004
   A13        2.08653   0.00027   0.00000   0.00018   0.00018   2.08671
   A14        2.04728  -0.00016   0.00000  -0.00004  -0.00004   2.04725
   A15        2.13089  -0.00008   0.00000  -0.00001  -0.00001   2.13088
   A16        2.11783   0.00000   0.00000  -0.00001  -0.00001   2.11782
[...]
 29,0.04043343,-0.00495914,0.45367326,0.00199839,-0.00160299,-0.0013842
 0,-0.00056351,0.00309520,0.00039336,-0.00595145,-0.00849090,-0.0045409
 5,0.01408050,-0.00511955,0.00534267,-0.06623712,-0.02072356,-0.0168106
 4,0.00521981,0.00040718,-0.00169779,0.00032007,-0.00003659,-0.00029824
 ,0.00070219,-0.00030710,-0.00017650,-0.00022750,0.00012085,0.00012873,
 0.00045580,0.00054318,-0.00007709,-0.00103844,0.00117974,0.00049504,-0
 .00024863,0.00103823,-0.00073675,0.00073275,0.00058598,0.00013652,0.00
 069980,0.00015715,0.00010571,-0.00036343,-0.00108578,0.00120151,0.0008
 1412,0.00150674,0.00042714,-0.00011267,-0.00007596,0.00027725,-0.00000
 351,-0.00020081,0.00061507,-0.00032509,-0.00010008,0.00071876,-0.10955
 639,-0.02991813,0.05546618,0.00929801,0.00409904,-0.00112814,0.7168183
 0,0.00189556,-0.00054543,0.00012899,-0.00088787,0.00207304,-0.00011237
 ,-0.00363450,-0.00618160,-0.00297215,0.01149298,-0.00284406,0.00336879
 ,-0.03311830,-0.01406798,-0.00977339,-0.00299029,0.00568157,-0.0010666
 5,0.00021710,-0.00002617,-0.00018548,0.00039815,-0.00012186,-0.0000980
 2,-0.00003173,0.00009744,0.00005704,0.00008122,0.00054125,-0.00002546,
 -0.00063215,0.00072150,0.00024151,-0.00086932,0.00011652,0.00026769,0.
 00218502,-0.00292922,0.00066700,0.00012995,-0.00033285,0.00083328,0.00
 128649,0.00044182,-0.00035370,0.00023436,0.00091900,0.00002736,-0.0000
 7668,-0.00005605,0.00017690,-0.00002766,-0.00009914,0.00034355,-0.0002
 4123,0.00004683,0.00041206,-0.02672995,-0.07549298,0.03574745,0.002487
 20,0.00159633,0.00034717,0.23081914,0.34015184,-0.00182782,0.00039700,
 0.00180481,0.00042105,-0.00182494,-0.00016489,0.00344586,0.00538062,0.
 00268355,-0.00931991,0.00238290,-0.00297999,0.01461316,0.00006284,0.03
 399526,-0.00304770,-0.00176489,-0.00275379,-0.00016846,0.00002565,0.00
 015140,-0.00041766,0.00020135,0.00008007,0.00016235,-0.00007453,-0.000
 07981,-0.00059960,-0.00035167,-0.00016682,0.00075437,-0.00057196,-0.00
 038964,0.00039049,0.00012865,0.00011055,-0.00214883,-0.00021459,-0.000
 16491,-0.00033963,0.00025290,0.00005881,-0.00027807,0.00016502,-0.0003
 2845,-0.00048766,-0.00101706,-0.00001631,0.00005633,0.00020825,-0.0002
 7259,0.00009542,0.00010970,-0.00040340,0.00013736,-0.00001452,-0.00045
 127,0.03077799,0.02485905,-0.20079304,0.03160535,0.01694602,-0.0159635
 8,0.23297333,0.08934228,0.75371426,-0.00118790,0.00026701,0.00138409,0
 .00033811,-0.00156113,-0.00012587,0.00312454,0.00421960,0.00230911,-0.
 00724583,0.00214201,-0.00260102,0.01863601,0.00098325,0.01858447,-0.00
 272738,-0.00039551,-0.00185292,-0.00016516,0.00002826,0.00014932,-0.00
 035316,0.00017648,0.00007843,0.00015476,-0.00004963,-0.00007007,-0.000
 51245,-0.00029678,-0.00010442,0.00047596,-0.00053964,-0.00016401,0.000
 21012,-0.00029714,0.00009280,-0.00020416,0.00034174,0.00008278,-0.0002
 7532,0.00009635,-0.00003118,0.00002976,0.00033404,-0.00041782,-0.00031
 987,-0.00069996,-0.00020755,0.00006482,0.00000614,-0.00012237,-0.00000
 097,0.00010155,-0.00027832,0.00017694,0.00004564,-0.00031630,-0.100512
 64,-0.05803406,-0.01857204,0.00074588,0.00245710,-0.00168701,-0.468871
 91,-0.18207927,-0.29501023,0.55521490,-0.00085420,0.00005336,0.0005039
 5,0.00037829,-0.00092989,0.00000012,0.00174720,0.00247659,0.00132166,-
 0.00445627,0.00124891,-0.00152770,0.00694435,0.00478876,0.00922490,-0.
 00010691,-0.00123267,-0.00089347,-0.00009995,0.00001317,0.00008305,-0.
 00018361,0.00007573,0.00004243,0.00004706,-0.00002627,-0.00004253,-0.0
 0019020,-0.00023701,-0.00005468,0.00025693,-0.00031042,-0.00007078,0.0
 0013427,-0.00028639,0.00002526,-0.00041392,0.00058782,-0.00003673,-0.0
 0001697,0.00015392,-0.00013812,-0.00031654,-0.00003544,0.00001320,-0.0
 0014801,-0.00037350,-0.00009208,0.00003328,0.00000417,-0.00006867,0.00
 000571,0.00005417,-0.00015718,0.00009688,0.00000587,-0.00017471,-0.060
 19238,-0.00897556,-0.00979711,0.00248260,-0.00159154,-0.00121656,-0.18
 273383,-0.15926924,-0.13447065,0.24588258,0.14486198,-0.00022445,0.000
 13729,-0.00003291,0.00007991,-0.00033695,0.00002753,0.00068698,0.00076
 055,0.00043098,-0.00156065,0.00048626,-0.00055034,0.00596905,0.0020945
 4,0.00160516,-0.00030506,-0.00005922,0.00027267,-0.00004887,0.00000532
 ,0.00003507,-0.00004692,0.00002097,0.00002537,0.00003625,-0.00000799,-
 0.00000144,0.00000851,-0.00006536,0.00001976,0.00003272,-0.00015092,0.
 00000343,0.00005391,-0.00022824,-0.00002573,0.00059892,0.00033438,-0.0
 0000165,-0.00007096,0.00000092,-0.00006760,0.00005732,0.00012155,-0.00
 014121,0.00000044,-0.00006832,-0.00013255,0.00002386,-0.00008017,0.000
 02581,-0.00003429,0.00001789,-0.00001140,0.00006026,0.00003077,-0.0000
 4575,-0.00237577,-0.00177603,0.03331321,-0.00374765,-0.00232311,0.0031
 9509,-0.27462664,-0.12448355,-0.32379122,0.32044405,0.14510780,0.32110
 891,0.00010591,-0.00005658,0.00009628,0.00006400,-0.00006635,-0.000065
 93,-0.00003340,0.00000083,0.00012689,0.00015677,0.00104776,-0.00037670
 ,-0.00021843,-0.00111555,0.00263781,-0.00046378,0.00052434,0.00010372,
 0.00000560,0.00000967,0.00000092,-0.00001769,0.00001674,-0.00000876,-0
 .00000632,0.00000842,-0.00002882,-0.00006581,-0.00000659,-0.00000291,-
 0.00002273,-0.00000568,-0.00000018,-0.00096772,-0.00022815,0.00081525,
 0.00009030,-0.00107293,0.00019804,-0.00010499,-0.00016680,0.00000160,0
 .00010495,0.00006307,-0.00006958,0.00004987,0.00002219,0.00000843,-0.0
 0011647,-0.00001727,-0.00001027,0.00001864,0.00001636,-0.00002740,0.00
 001753,0.00000319,0.00000335,0.00505789,-0.00567561,0.03155373,-0.0038
 9174,-0.00358786,0.00162870,-0.09302812,0.00247809,0.00491959,-0.00036
 144,-0.01200372,-0.04212318,0.61426062,0.00005134,-0.00004515,-0.00008
 913,0.00003507,0.00001815,0.00003418,0.00009150,0.00009953,-0.00011355
 ,0.00008602,-0.00054540,0.00046873,-0.00011210,-0.00086654,0.00050488,
 0.00053164,-0.00062323,0.00021892,-0.00000005,0.00000138,0.00001222,-0
 .00000602,0.00001080,-0.00001304,0.00000405,-0.00000186,-0.00000434,-0
 .00001841,-0.00001091,0.00000149,0.00006013,-0.00002817,-0.00003371,0.
 00020904,0.00021695,-0.00025662,-0.00066807,0.00052258,-0.00024045,-0.
 00003281,-0.00002256,-0.00009747,-0.00018837,-0.00004234,0.00012239,-0
 .00002450,0.00004026,-0.00005076,0.00004805,-0.00005484,0.00001325,-0.
 00003362,-0.00002799,0.00003173,0.00004134,0.00002347,0.00000083,-0.00
 363234,0.01048064,0.01710471,-0.00357625,0.00131034,0.00099253,0.00290
 573,-0.09519665,0.01109830,-0.01381403,0.02162791,-0.01888732,0.030980
 14,0.56920488,-0.00000249,-0.00011590,-0.00014254,0.00006025,0.0001147
 3,0.00008056,-0.00042682,-0.00052113,-0.00038144,0.00059400,-0.0002440
 4,-0.00028893,-0.00227575,0.00026923,-0.00345880,0.00006283,-0.0000159
 9,-0.00011553,0.00000867,-0.00000173,-0.00001829,0.00007911,-0.0000139
 4,-0.00001472,-0.00000277,0.00000692,0.00001783,0.00007371,0.00003778,
 0.00001228,0.00002699,0.00020139,0.00006594,0.00014647,0.00011062,0.00
 003922,-0.00028640,-0.00075627,0.00009779,0.00007445,0.00008758,-0.000
 01134,0.00000935,0.00007987,0.00004146,0.00005375,0.00017718,-0.000000
 66,-0.00005018,-0.00006604,0.00002173,-0.00000983,-0.00000508,0.000047
 92,-0.00000631,0.00000987,0.00006072,0.00872174,0.00554496,-0.01602958
 ,0.00071108,0.00035216,0.00116900,0.00174562,0.00662718,-0.21441577,-0
 .01869067,-0.00660399,-0.02788601,-0.01248573,-0.01304736,0.50058825,0
 .00008825,0.00003028,0.00000807,-0.00007197,0.00005243,-0.00004214,0.0
 0012701,-0.00005977,-0.00000912,-0.00016207,0.00075701,0.00010752,-0.0
 0070074,-0.00115863,0.00064941,0.00017639,-0.00013196,0.00011507,0.000
 00380,0.00000011,0.00000521,-0.00001899,-0.00000095,-0.00000133,-0.000
 00129,0.00000302,-0.00000480,-0.00002170,0.00000251,-0.00000029,-0.000
 03770,-0.00013971,-0.00000443,-0.00188742,0.00094515,0.00130110,-0.000
 33818,0.00022283,0.00072016,-0.00001242,-0.00002301,0.00003427,-0.0000
 5835,-0.00001843,0.00005596,-0.00001415,-0.00008060,0.00007688,0.00002
 883,0.00008320,-0.00004645,-0.00000542,-0.00000405,0.00000467,0.000041
 08,0.00002420,-0.00003017,-0.00093220,-0.00035877,-0.00000604,0.000035
 70,0.00017957,-0.00012373,-0.00141693,-0.00283876,-0.00214431,0.001287
 98,0.00133397,-0.00052333,-0.23324203,0.11081587,-0.06517814,0.2521827
 9,-0.00006959,0.00002554,0.00000971,0.00002604,-0.00005753,-0.00002301
 ,-0.00001579,0.00008313,0.00015538,0.00037468,0.00052565,-0.00050505,-
 0.00001783,-0.00046128,0.00108463,-0.00007243,-0.00009736,-0.00016982,
 -0.00000105,0.00000207,-0.00000767,-0.00000546,-0.00000663,0.00000710,
 -0.00000503,-0.00001916,0.00000740,0.00001481,-0.00001227,-0.00000482,
 -0.00001309,-0.00001179,0.00001577,0.00084468,-0.00093998,-0.00086846,
 -0.00057188,-0.00061263,0.00062316,0.00003026,0.00004113,-0.00005617,0
 .00002071,-0.00001494,-0.00003267,0.00005320,-0.00009047,0.00002666,-0
 .00003937,0.00011660,-0.00000857,0.00003054,0.00000100,-0.00004900,-0.
 00006893,-0.00004984,-0.00000968,-0.00068804,-0.00027604,0.00055942,-0
 .00006852,0.00006553,0.00003584,-0.00248273,-0.00075465,-0.00292053,0.
 00043926,-0.00074851,-0.00129752,0.11096164,-0.10850074,0.04456967,-0.
 12107511,0.11582057,0.00002838,-0.00001432,0.00001956,0.00000608,0.000
 00216,-0.00004371,-0.00004851,-0.00009441,0.00016323,0.00043233,-0.000
 42743,0.00056777,-0.00013112,0.00089434,-0.00121113,-0.00004091,0.0001
 5936,0.00004078,0.00000336,0.00000238,-0.00001181,-0.00000926,-0.00001
 550,0.00000297,0.00000193,-0.00000368,-0.00000371,0.00000745,-0.000003
 77,0.00000307,-0.00008098,0.00001638,0.00002314,0.00189055,-0.00127164
 ,-0.00127920,0.00045887,0.00059716,-0.00035332,-0.00001980,-0.00003831
 ,0.00002251,0.00002814,-0.00000759,-0.00000717,-0.00006781,-0.00007327
 ,0.00002981,-0.00004132,0.00008263,-0.00002617,0.00001852,0.00001201,-
 0.00002974,-0.00000549,-0.00000204,-0.00001096,0.00251566,-0.00102345,
 -0.00014938,0.00004679,-0.00067470,0.00002253,-0.03224448,0.01830120,-
 0.00464051,0.00158741,-0.00359243,-0.00660980,-0.06707197,0.04533506,-
 0.07312940,0.07223976,-0.04521981,0.07823970,0.00000403,-0.00000598,-0
 .00000093,-0.00003599,0.00004769,-0.00001097,-0.00005170,-0.00015277,-
 0.00000743,0.00018190,0.00000843,0.00005684,-0.00025042,0.00109070,0.0
 0143293,-0.00009612,-0.00004146,-0.00013162,0.00000830,-0.00000454,-0.
 00000911,0.00000634,-0.00001169,0.00000317,-0.00003835,-0.00001597,-0.
 00000438,0.00001551,0.00000272,-0.00001032,-0.00004545,-0.00003055,-0.
 00000500,0.00005874,-0.00004769,-0.00003581,-0.00157170,0.00001542,0.0
 0096606,0.00004040,0.00000394,-0.00005950,-0.00001274,-0.00002036,0.00
 002501,0.00003660,-0.00001763,0.00001783,0.00001987,0.00005116,-0.0000
 0285,0.00001744,-0.00001462,-0.00000811,-0.00004125,-0.00003078,-0.000
 01226,-0.00102089,-0.00087335,0.00034876,0.00003739,-0.00013334,0.0000
 0018,-0.00262215,-0.00171610,-0.00369682,0.00029922,0.00108085,-0.0012
 9613,-0.04573519,-0.01426145,-0.00053938,0.00196006,0.02532526,0.01092
 067,0.04804435,-0.00002942,-0.00000305,0.00002371,0.00001921,-0.000033
 38,0.00001681,0.00010149,0.00005540,-0.00000019,-0.00014594,0.00001093
 ,-0.00007922,0.00007185,0.00085535,0.00107448,0.00001628,0.00030658,-0
 .00003082,-0.00000492,-0.00000632,0.00000612,-0.00000339,0.00000024,0.
 00000502,-0.00004341,0.00000964,-0.00002177,-0.00001176,-0.00000861,-0
 .00000883,0.00001500,-0.00000552,-0.00000885,0.00001200,0.00000450,0.0
 0000236,0.00016499,0.00021244,0.00020912,0.00000712,-0.00011814,0.0000
 3331,0.00004560,-0.00013256,0.00000864,-0.00000334,0.00000155,-0.00001
 206,-0.00000303,-0.00002452,0.00000127,-0.00000612,0.00000262,-0.00000
 181,0.00001380,0.00000403,-0.00001202,-0.00153123,-0.00148207,-0.00047
 403,0.00003236,-0.00002077,-0.00006503,-0.00112884,0.00462431,-0.00419
 268,0.00260658,-0.00070043,0.00198367,-0.01263098,-0.28652812,-0.08687
 919,-0.00210738,-0.01256610,-0.00525700,0.01265452,0.30499093,0.000010
 28,0.00000728,-0.00001660,0.00001257,-0.00001240,-0.00000991,0.0000088
 7,0.00012225,0.00008477,-0.00015499,0.00006981,0.00000583,0.00079748,-
 0.00108127,-0.00118543,0.00020128,-0.00002786,0.00009998,-0.00000213,0
 .00000402,0.00000014,-0.00001135,0.00000182,-0.00000067,0.00002732,-0.
 00000284,0.00001342,-0.00000698,-0.00000578,0.00000162,-0.00001404,0.0
 0000172,0.00000239,0.00001971,-0.00000704,-0.00002065,0.00106629,0.000
 07930,-0.00032439,-0.00005250,-0.00001450,0.00001776,-0.00000144,-0.00
 003481,-0.00001599,0.00000956,-0.00002082,0.00000932,0.00000993,0.0000
 2472,-0.00000137,0.00000463,-0.00000133,-0.00001135,-0.00000429,-0.000
 01405,0.00000384,0.00044672,0.00311993,0.00014873,-0.00048665,0.000500
 93,0.00002232,-0.00226022,-0.03777004,-0.00860735,-0.00217534,0.004281
 54,-0.00537940,-0.00058482,-0.08941165,-0.08128565,0.00124673,0.010651
 55,0.00437841,0.00382183,0.09792409,0.08706051,0.00001393,0.00000923,0
 .00001838,0.00001614,-0.00002471,-0.00001416,0.00007523,0.00003666,0.0
 0004196,-0.00013157,0.00011812,-0.00000232,-0.00005197,-0.00001291,-0.
 00025075,0.00005717,0.00002802,0.00005472,-0.00000415,-0.00000032,0.00
 000526,-0.00001276,0.00000036,0.00000128,0.00000649,0.00000423,-0.0000
 0513,-0.00001130,-0.00000930,0.00000311,-0.00001765,-0.00002539,0.0000
 1515,0.00002029,-0.00009276,-0.00000827,0.00010270,0.00021617,0.000213
 91,-0.00001333,-0.00003370,0.00003317,-0.00001468,0.00000145,0.0000190
 5,-0.00000203,0.00002441,-0.00004421,0.00000859,-0.00003172,0.00002302
 ,-0.00002001,-0.00000345,0.00000322,0.00001753,0.00000837,-0.00000082,
 0.00045762,-0.00042948,-0.00095584,0.00025553,-0.00010613,-0.00011093,
 0.00130665,0.00213484,-0.00331086,0.00114554,0.00089870,-0.00068812,-0
 .24141507,-0.10792184,0.08734124,-0.01707262,-0.01252963,0.00963052,0.
 00104074,0.00125830,-0.00099567,0.25421670,-0.00001327,0.00000500,0.00
 001210,0.00001299,-0.00003108,0.00000086,0.00003535,0.00011890,0.00005
 136,-0.00012947,0.00000871,-0.00007994,0.00053947,-0.00044985,-0.00025
 292,-0.00002734,0.00010739,0.00006881,-0.00000274,0.00000281,0.0000029
 6,-0.00000678,0.00000578,-0.00000004,0.00001041,0.00000150,0.00000163,
 -0.00001289,-0.00000392,-0.00000015,0.00002325,0.00001105,-0.00001288,
 -0.00002185,0.00004544,0.00002453,0.00032135,-0.00016080,0.00000883,-0
 .00004384,-0.00001974,0.00001293,0.00001532,0.00000065,-0.00003637,-0.
 00000864,-0.00003262,0.00001779,-0.00000696,0.00001082,-0.00001218,0.0
 0000798,0.00000914,-0.00000917,0.00000576,-0.00000036,-0.00000301,-0.0
 0061051,0.00121212,-0.00018236,-0.00012933,0.00035597,-0.00004053,0.00
 074389,-0.00189924,-0.00228101,0.00109920,-0.00003885,-0.00020297,-0.1
 0792264,-0.10897213,0.04933193,0.01341718,0.00861648,-0.00766630,-0.02
 345660,-0.00869275,0.01254969,0.11657385,0.11064875,0.00004605,0.00001
 067,-0.00004974,-0.00001624,0.00006280,0.00000638,-0.00009818,-0.00019
 345,-0.00010351,0.00028376,-0.00008312,0.00012775,-0.00223956,-0.00104
 561,-0.00083280,0.00019737,0.00011628,0.00018605,0.00000476,-0.0000013
 3,-0.00000525,0.00001402,-0.00000841,-0.00000229,0.00001056,0.00000795
 ,0.00000687,0.00002061,0.00001524,0.00000671,-0.00003830,0.00002194,0.
 00001725,0.00000756,0.00000077,-0.00002239,0.00017721,0.00000393,0.000
 21519,-0.00001888,-0.00001242,0.00007196,0.00000693,-0.00001516,0.0000
 0582,0.00001943,0.00005275,-0.00002033,0.00000689,-0.00002548,0.000024
 29,-0.00001124,-0.00000513,0.00002052,0.00000393,0.00000252,0.00002096
 ,-0.00037892,0.00022838,-0.00781072,0.00144447,0.00073235,-0.00041139,
 0.03182062,0.01762964,-0.01246723,-0.00065871,-0.00080786,0.00436149,0
 .08005043,0.04522771,-0.08545743,-0.00835097,-0.00655834,0.00397212,-0
 .01112823,-0.00355323,0.00482014,-0.09103087,-0.05169332,0.09303684,-0
 .00004599,0.00041503,0.00013503,0.00010556,-0.00025293,-0.00006688,0.0
 0067949,0.00172282,0.00112601,-0.00252513,0.00106028,-0.00058299,-0.00
 207606,-0.00429668,-0.00557968,-0.00193416,0.00059957,0.00438592,-0.00
 007799,0.00013656,0.00002103,-0.00015365,0.00006099,-0.00002066,0.0006
 3569,0.00008159,0.00040268,-0.00012940,-0.00000976,0.00024291,0.000097
 44,-0.00008488,0.00001902,0.00012892,-0.00008560,0.00001137,-0.0025553
 1,0.00560484,0.00213994,-0.00094531,0.00122079,0.00001614,-0.00226110,
 0.00243363,0.00145458,-0.00009178,-0.00025409,-0.00002841,0.00003266,0
 .00001191,-0.00005189,-0.00001477,0.00004409,-0.00011801,0.00009865,0.
 00002225,-0.00004375,0.00458314,0.00017442,0.00106850,0.00043541,-0.00
 025185,-0.00013530,-0.00187953,0.00003368,0.00244494,0.00083366,0.0003
 9384,-0.00038017,-0.00024116,-0.00157006,0.00024521,0.00006228,-0.0003
 9660,-0.00005476,-0.00024892,0.00063065,-0.00093278,0.00002630,-0.0004
 1315,-0.00014447,0.00746107,0.00058520,-0.00072768,-0.00055884,-0.0003
 5827,0.00116475,0.00041529,-0.00218063,-0.00438200,-0.00239288,0.00605
 274,-0.00239949,0.00134558,-0.00319211,0.00903777,0.01128010,0.0013936
 4,0.00123105,-0.00303018,0.00007678,0.00002972,-0.00011376,0.00032155,
 -0.00009322,-0.00007836,0.00001817,-0.00007929,0.00021910,0.00012599,0
 .00021586,-0.00009273,-0.00020999,0.00012582,-0.00001778,-0.00027868,0
 .00028436,-0.00010700,0.00619629,-0.01220614,-0.00425788,0.00073007,-0
 .00049819,0.00002520,0.00205382,-0.00178119,-0.00227676,0.00014969,0.0
 0047287,-0.00005719,-0.00005559,0.00001702,0.00007001,0.00003122,-0.00
 006064,0.00026851,-0.00015687,-0.00000165,0.00022204,-0.00595328,-0.01
 230782,-0.00538556,-0.00068046,0.00062963,0.00112876,0.00680479,0.0028
 0568,-0.00186149,-0.00345962,-0.00119662,-0.00113425,-0.00157573,-0.00
 209028,0.00074957,0.00012980,-0.00007779,-0.00001707,0.00055421,-0.000
 75620,-0.00093425,-0.00009134,-0.00085916,-0.00011002,-0.00703136,0.02
 350282,-0.00039126,-0.00100302,-0.00078248,0.00015841,0.00047881,0.000
 36167,-0.00074439,-0.00146140,-0.00097767,0.00195490,-0.00084336,0.000
 55644,-0.00378660,0.01245994,0.00432762,0.00383279,-0.00081211,-0.0055
 9975,0.00000367,0.00002015,-0.00002463,0.00021486,-0.00016959,0.000042
 00,0.00005095,0.00021244,0.00002678,0.00011272,0.00009682,0.00000788,-
 0.00007871,0.00005879,0.00006757,-0.00007759,0.00001827,-0.00002295,0.
 00193674,-0.00399321,0.00005873,0.00125297,-0.00150519,0.00016199,0.00
 221286,-0.00336171,-0.00124321,0.00003072,0.00010078,-0.00007795,-0.00
 002073,-0.00005042,0.00005344,-0.00002048,0.00000170,0.00012578,0.0000
 4285,0.00004082,0.00008063,-0.00359334,-0.00957176,-0.00149135,-0.0000
 1678,0.00035717,0.00074076,0.00413414,0.00232172,-0.00374814,-0.001626
 63,-0.00085866,0.00025251,0.00071148,0.00107845,0.00039340,-0.00009957
 ,-0.00001517,0.00002039,-0.00063443,-0.00069186,0.00018958,0.00001396,
 0.00038973,0.00028274,-0.00557351,0.00670186,0.00621822\\0.00000422,0.
 00000279,0.00001098,0.00000413,0.00000450,0.00001684,0.00000075,0.0000
 0102,0.00000757,-0.00931473,0.01504706,-0.00079022,0.00515810,-0.00512
 613,0.00565302,0.00000742,-0.00000079,0.00000331,0.00000920,0.00000519
 ,0.00001528,-0.00000019,0.00000413,0.00002051,-0.00000396,0.00000234,0
 .00001218,0.00000560,0.00000459,0.00001602,0.00001031,0.00000412,-0.00
 000006,0.00000118,0.00000114,-0.00000248,-0.00000727,0.00000437,-0.000
 00398,0.00001317,0.00000359,0.00000327,0.00000630,0.00000202,0.0000024
 2,-0.00000869,0.00000171,0.00001009,-0.00001117,-0.00000205,0.00000383
 ,-0.00001121,0.00000103,0.00001495,-0.00001337,-0.00000069,0.00000958,
 0.00000139,0.00000078,-0.00001068,0.00001157,-0.00000141,-0.00001198,0
 .00001155,-0.00001002,-0.00001667,0.00000317,-0.00000141,-0.00002467,-
 0.00000921,-0.00000534,-0.00001840,-0.00000668,-0.00000347,-0.00001382
 ,-0.00000921,-0.00000508,-0.00001420,-0.00000855,-0.00000612,-0.000023
 03,0.00415618,-0.00992786,-0.00486968\\\@


 WHEN A MATHEMATICIAN ENGAGED IN INVESTIGATING
 PHYSICAL ACTIONS AND RESULTS HAS ARRIVED AT HIS
 CONCLUSIONS, MAY THEY NOT BE EXPRESSED IN COMMON
 LANGUAGE AS FULLY, CLEARLY, AND DEFINITELY AS IN
 MATHEMATICAL FORMULAE?
           - LETTER FROM M. FARADAY TO J.C. MAXWELL, 1857.
 Job cpu time:       0 days  0 hours 57 minutes 41.8 seconds.
 Elapsed time:       0 days  0 hours  3 minutes 41.1 seconds.
 File lengths (MBytes):  RWF=    243 Int=      0 D2E=      0 Chk=     13 Scr=      1
 Normal termination of Gaussian 16 at Wed Dec 14 18:27:56 2022.
