 Entering Gaussian System, Link 0=g16
 Input=SM.gjf
 Output=SM.out
 Initial command:
 /n/sw/g16_nehalem/g16/l1.exe "/n/holyscratch01/jacobsen_lab/cwagen_SM/Gau-24241.inp" -scrdir="/n/holyscratch01/jacobsen_lab/cwagen_SM/"
 Entering Link 1 = /n/sw/g16_nehalem/g16/l1.exe PID=     24243.
  
 Copyright (c) 1988,1990,1992,1993,1995,1998,2003,2009,2016,
            Gaussian, Inc.  All Rights Reserved.
  
 This is part of the Gaussian(R) 16 program.  It is based on
 the Gaussian(R) 09 system (copyright 2009, Gaussian, Inc.),
 the Gaussian(R) 03 system (copyright 2003, Gaussian, Inc.),
 the Gaussian(R) 98 system (copyright 1998, Gaussian, Inc.),
 the Gaussian(R) 94 system (copyright 1995, Gaussian, Inc.),
 the Gaussian 92(TM) system (copyright 1992, Gaussian, Inc.),
 the Gaussian 90(TM) system (copyright 1990, Gaussian, Inc.),
 the Gaussian 88(TM) system (copyright 1988, Gaussian, Inc.),
 the Gaussian 86(TM) system (copyright 1986, Carnegie Mellon
 University), and the Gaussian 82(TM) system (copyright 1983,
 Carnegie Mellon University). Gaussian is a federally registered
 trademark of Gaussian, Inc.
  
 This software contains proprietary and confidential information,
 including trade secrets, belonging to Gaussian, Inc.
  
 This software is provided under written license and may be
 used, copied, transmitted, or stored only in accord with that
 written license.
  
 The following legend is applicable only to US Government
 contracts under FAR:
  
                    RESTRICTED RIGHTS LEGEND
  
 Use, reproduction and disclosure by the US Government is
 subject to restrictions as set forth in subparagraphs (a)
 and (c) of the Commercial Computer Software - Restricted
 Rights clause in FAR 52.227-19.
  
 Gaussian, Inc.
 340 Quinnipiac St., Bldg. 40, Wallingford CT 06492
  
  
 ---------------------------------------------------------------
 Warning -- This program may not be used in any manner that
 competes with the business of Gaussian, Inc. or will provide
 assistance to any competitor of Gaussian, Inc.  The licensee
 of this program is prohibited from giving any competitor of
 Gaussian, Inc. access to this program.  By using this program,
 the user acknowledges that Gaussian, Inc. is engaged in the
 business of creating and licensing software in the field of
 computational chemistry and represents and warrants to the
 licensee that it is not a competitor of Gaussian, Inc. and that
 it will not use this program in any manner prohibited above.
 ---------------------------------------------------------------
  

 Cite this work as:
 Gaussian 16, Revision A.03,
 M. J. Frisch, G. W. Trucks, H. B. Schlegel, G. E. Scuseria, 
 M. A. Robb, J. R. Cheeseman, G. Scalmani, V. Barone, 
 G. A. Petersson, H. Nakatsuji, X. Li, M. Caricato, A. V. Marenich, 
 J. Bloino, B. G. Janesko, R. Gomperts, B. Mennucci, H. P. Hratchian, 
 J. V. Ortiz, A. F. Izmaylov, J. L. Sonnenberg, D. Williams-Young, 
 F. Ding, F. Lipparini, F. Egidi, J. Goings, B. Peng, A. Petrone, 
 T. Henderson, D. Ranasinghe, V. G. Zakrzewski, J. Gao, N. Rega, 
 G. Zheng, W. Liang, M. Hada, M. Ehara, K. Toyota, R. Fukuda, 
 J. Hasegawa, M. Ishida, T. Nakajima, Y. Honda, O. Kitao, H. Nakai, 
 T. Vreven, K. Throssell, J. A. Montgomery, Jr., J. E. Peralta, 
 F. Ogliaro, M. J. Bearpark, J. J. Heyd, E. N. Brothers, K. N. Kudin, 
 V. N. Staroverov, T. A. Keith, R. Kobayashi, J. Normand, 
 K. Raghavachari, A. P. Rendell, J. C. Burant, S. S. Iyengar, 
 J. Tomasi, M. Cossi, J. M. Millam, M. Klene, C. Adamo, R. Cammi, 
 J. W. Ochterski, R. L. Martin, K. Morokuma, O. Farkas, 
 J. B. Foresman, and D. J. Fox, Gaussian, Inc., Wallingford CT, 2016.
 
 ******************************************
 Gaussian 16:  ES64L-G16RevA.03 25-Dec-2016
                13-Dec-2022 
 ******************************************
 %mem=32GB
 %nprocshared=16
 Will use up to   16 processors via shared memory.
 ----------------------------------------------------------------------
 #p opt freq=noraman wb97xd/6-31g(d) scrf=(smd,solvent=dichloromethane)
 ----------------------------------------------------------------------
 1/18=20,19=15,26=3,38=1/1,3;
 2/9=110,12=2,17=6,18=5,40=1/2;
 3/5=1,6=6,7=1,11=2,25=1,30=1,70=32201,71=1,72=9,74=-58/1,2,3;
 4//1;
 5/5=2,38=5,53=9/2;
 6/7=2,8=2,9=2,10=2,28=1/1;
 7//1,2,3,16;
 1/18=20,19=15,26=3/3(2);
 2/9=110/2;
 99//99;
 2/9=110/2;
 3/5=1,6=6,7=1,11=2,25=1,30=1,70=32205,71=1,72=9,74=-58/1,2,3;
 4/5=5,16=3,69=1/1;
 5/5=2,38=5,53=9/2;
 7//1,2,3,16;
 1/18=20,19=15,26=3/3(-5);
 2/9=110/2;
 6/7=2,8=2,9=2,10=2,19=2,28=1/1;
 99/9=1/99;
 Leave Link    1 at Tue Dec 13 10:23:51 2022, MaxMem=  4294967296 cpu:               2.0 elap:               0.1
 (Enter /n/sw/g16_nehalem/g16/l101.exe)
 -------------------
 Title Card Required
 -------------------
 Symbolic Z-matrix:
 Charge =  0 Multiplicity = 1
 C                    -3.70199  -1.13426   0. 
 C                    -2.18688  -1.13426   0. 
 C                    -1.63495  -2.54533  -0.00504 
 C                    -1.79024  -3.34554  -1.1687 
 C                    -3.69974   1.08201   1.16017 
 C                    -4.25254  -0.32861   1.15888 
 H                    -1.81433  -0.58539  -0.90461 
 H                    -1.81159  -0.58763   0.90387 
 H                    -4.07467  -0.70123  -0.96539 
 H                    -4.07758  -2.18848   0.0635 
 H                    -1.4177   -2.90725  -2.13175 
 H                    -1.41421  -4.39989  -1.11047 
 H                    -4.07159   1.62862   0.25385 
 H                    -3.98653  -0.83433   2.12419 
 H                    -5.37108  -0.29355   1.09394 
 C                    -2.00374  -3.24426   1.31673 
 H                    -1.60022  -4.23525   1.32086 
 H                    -1.59865  -2.69078   2.13798 
 H                    -3.06861  -3.29238   1.40973 
 N                    -4.19192   1.80252   2.34319 
 H                    -4.76382   1.19211   2.89121 
 C                    -4.37693   3.22234   2.01035 
 O                    -4.90024   4.01416   2.78848 
 C                    -3.87041   3.65018   0.62039 
 H                    -2.80436   3.73954   0.64121 
 H                    -4.15262   2.91492  -0.10394 
 H                    -4.30234   4.59335   0.35814 
 Cl                   -5.95657   1.63547   1.18126 
 
 Add virtual bond connecting atoms Cl28       and H13        Dist= 3.97D+00.
 Add virtual bond connecting atoms Cl28       and H15        Dist= 3.81D+00.
 Add virtual bond connecting atoms Cl28       and N20        Dist= 4.01D+00.
 Add virtual bond connecting atoms Cl28       and H21        Dist= 4.03D+00.
 ITRead=  0  0  0  0  0  0  0  0  0  0  0  0  0  0  0  0  0  0  0  0
 ITRead=  0  0  0  0  0  0  0  0
 MicOpt= -1 -1 -1 -1 -1 -1 -1 -1 -1 -1 -1 -1 -1 -1 -1 -1 -1 -1 -1 -1
 MicOpt= -1 -1 -1 -1 -1 -1 -1 -1
 NAtoms=     28 NQM=       28 NQMF=       0 NMMI=      0 NMMIF=      0
                NMic=       0 NMicF=      0.
                    Isotopes and Nuclear Properties:
 (Nuclear quadrupole moments (NQMom) in fm**2, nuclear magnetic moments (NMagM)
  in nuclear magnetons)

  Atom         1           2           3           4           5           6           7           8           9          10
 IAtWgt=          12          12          12          12          12          12           1           1           1           1
 AtmWgt=  12.0000000  12.0000000  12.0000000  12.0000000  12.0000000  12.0000000   1.0078250   1.0078250   1.0078250   1.0078250
 NucSpn=           0           0           0           0           0           0           1           1           1           1
 AtZEff=   0.0000000   0.0000000   0.0000000   0.0000000   0.0000000   0.0000000   0.0000000   0.0000000   0.0000000   0.0000000
 NQMom=    0.0000000   0.0000000   0.0000000   0.0000000   0.0000000   0.0000000   0.0000000   0.0000000   0.0000000   0.0000000
 NMagM=    0.0000000   0.0000000   0.0000000   0.0000000   0.0000000   0.0000000   2.7928460   2.7928460   2.7928460   2.7928460
 AtZNuc=   6.0000000   6.0000000   6.0000000   6.0000000   6.0000000   6.0000000   1.0000000   1.0000000   1.0000000   1.0000000

  Atom        11          12          13          14          15          16          17          18          19          20
 IAtWgt=           1           1           1           1           1          12           1           1           1          14
 AtmWgt=   1.0078250   1.0078250   1.0078250   1.0078250   1.0078250  12.0000000   1.0078250   1.0078250   1.0078250  14.0030740
 NucSpn=           1           1           1           1           1           0           1           1           1           2
 AtZEff=   0.0000000   0.0000000   0.0000000   0.0000000   0.0000000   0.0000000   0.0000000   0.0000000   0.0000000   0.0000000
 NQMom=    0.0000000   0.0000000   0.0000000   0.0000000   0.0000000   0.0000000   0.0000000   0.0000000   0.0000000   2.0440000
 NMagM=    2.7928460   2.7928460   2.7928460   2.7928460   2.7928460   0.0000000   2.7928460   2.7928460   2.7928460   0.4037610
 AtZNuc=   1.0000000   1.0000000   1.0000000   1.0000000   1.0000000   6.0000000   1.0000000   1.0000000   1.0000000   7.0000000

  Atom        21          22          23          24          25          26          27          28
 IAtWgt=           1          12          16          12           1           1           1          35
 AtmWgt=   1.0078250  12.0000000  15.9949146  12.0000000   1.0078250   1.0078250   1.0078250  34.9688527
 NucSpn=           1           0           0           0           1           1           1           3
 AtZEff=   0.0000000   0.0000000   0.0000000   0.0000000   0.0000000   0.0000000   0.0000000   0.0000000
 NQMom=    0.0000000   0.0000000   0.0000000   0.0000000   0.0000000   0.0000000   0.0000000  -8.1650000
 NMagM=    2.7928460   0.0000000   0.0000000   0.0000000   2.7928460   2.7928460   2.7928460   0.8218740
 AtZNuc=   1.0000000   6.0000000   8.0000000   6.0000000   1.0000000   1.0000000   1.0000000  17.0000000
 Leave Link  101 at Tue Dec 13 10:23:52 2022, MaxMem=  4294967296 cpu:               6.4 elap:               0.4
 (Enter /n/sw/g16_nehalem/g16/l103.exe)

 GradGradGradGradGradGradGradGradGradGradGradGradGradGradGradGradGradGrad
 Berny optimization.
 Initialization pass.
                           ----------------------------
                           !    Initial Parameters    !
                           ! (Angstroms and Degrees)  !
 --------------------------                            --------------------------
 ! Name  Definition              Value          Derivative Info.                !
 --------------------------------------------------------------------------------
 ! R1    R(1,2)                  1.5151         estimate D2E/DX2                !
 ! R2    R(1,6)                  1.515          estimate D2E/DX2                !
 ! R3    R(1,9)                  1.1218         estimate D2E/DX2                !
 ! R4    R(1,10)                 1.1209         estimate D2E/DX2                !
 ! R5    R(2,3)                  1.5152         estimate D2E/DX2                !
 ! R6    R(2,7)                  1.1218         estimate D2E/DX2                !
 ! R7    R(2,8)                  1.121          estimate D2E/DX2                !
 ! R8    R(3,4)                  1.4208         estimate D2E/DX2                !
 ! R9    R(3,16)                 1.54           estimate D2E/DX2                !
 ! R10   R(4,11)                 1.1218         estimate D2E/DX2                !
 ! R11   R(4,12)                 1.1209         estimate D2E/DX2                !
 ! R12   R(5,6)                  1.5151         estimate D2E/DX2                !
 ! R13   R(5,13)                 1.1218         estimate D2E/DX2                !
 ! R14   R(5,20)                 1.47           estimate D2E/DX2                !
 ! R15   R(6,14)                 1.1218         estimate D2E/DX2                !
 ! R16   R(6,15)                 1.121          estimate D2E/DX2                !
 ! R17   R(13,28)                2.1008         estimate D2E/DX2                !
 ! R18   R(15,28)                2.0178         estimate D2E/DX2                !
 ! R19   R(16,17)                1.07           estimate D2E/DX2                !
 ! R20   R(16,18)                1.07           estimate D2E/DX2                !
 ! R21   R(16,19)                1.07           estimate D2E/DX2                !
 ! R22   R(20,21)                1.0            estimate D2E/DX2                !
 ! R23   R(20,22)                1.47           estimate D2E/DX2                !
 ! R24   R(20,28)                2.1194         estimate D2E/DX2                !
 ! R25   R(21,28)                2.1315         estimate D2E/DX2                !
 ! R26   R(22,23)                1.2273         estimate D2E/DX2                !
 ! R27   R(22,24)                1.54           estimate D2E/DX2                !
 ! R28   R(24,25)                1.07           estimate D2E/DX2                !
 ! R29   R(24,26)                1.07           estimate D2E/DX2                !
 ! R30   R(24,27)                1.07           estimate D2E/DX2                !
 ! A1    A(2,1,6)              111.3094         estimate D2E/DX2                !
 ! A2    A(2,1,9)              109.4042         estimate D2E/DX2                !
 ! A3    A(2,1,10)             109.5772         estimate D2E/DX2                !
 ! A4    A(6,1,9)              109.4074         estimate D2E/DX2                !
 ! A5    A(6,1,10)             109.5749         estimate D2E/DX2                !
 ! A6    A(9,1,10)             107.4863         estimate D2E/DX2                !
 ! A7    A(1,2,3)              111.3625         estimate D2E/DX2                !
 ! A8    A(1,2,7)              109.3968         estimate D2E/DX2                !
 ! A9    A(1,2,8)              109.5595         estimate D2E/DX2                !
 ! A10   A(3,2,7)              109.3908         estimate D2E/DX2                !
 ! A11   A(3,2,8)              109.5638         estimate D2E/DX2                !
 ! A12   A(7,2,8)              107.4839         estimate D2E/DX2                !
 ! A13   A(2,3,4)              119.1725         estimate D2E/DX2                !
 ! A14   A(2,3,16)             109.4252         estimate D2E/DX2                !
 ! A15   A(4,3,16)             114.9091         estimate D2E/DX2                !
 ! A16   A(3,4,11)             116.5385         estimate D2E/DX2                !
 ! A17   A(3,4,12)             116.7805         estimate D2E/DX2                !
 ! A18   A(11,4,12)            107.5            estimate D2E/DX2                !
 ! A19   A(6,5,13)             109.3914         estimate D2E/DX2                !
 ! A20   A(6,5,20)             109.5649         estimate D2E/DX2                !
 ! A21   A(13,5,20)            107.4801         estimate D2E/DX2                !
 ! A22   A(1,6,5)              111.2962         estimate D2E/DX2                !
 ! A23   A(1,6,14)             109.4108         estimate D2E/DX2                !
 ! A24   A(1,6,15)             109.5686         estimate D2E/DX2                !
 ! A25   A(5,6,14)             109.42           estimate D2E/DX2                !
 ! A26   A(5,6,15)             109.5728         estimate D2E/DX2                !
 ! A27   A(14,6,15)            107.4917         estimate D2E/DX2                !
 ! A28   A(5,13,28)             86.6955         estimate D2E/DX2                !
 ! A29   A(6,15,28)            108.477          estimate D2E/DX2                !
 ! A30   A(3,16,17)            109.4712         estimate D2E/DX2                !
 ! A31   A(3,16,18)            109.4712         estimate D2E/DX2                !
 ! A32   A(3,16,19)            109.4712         estimate D2E/DX2                !
 ! A33   A(17,16,18)           109.4713         estimate D2E/DX2                !
 ! A34   A(17,16,19)           109.4712         estimate D2E/DX2                !
 ! A35   A(18,16,19)           109.4712         estimate D2E/DX2                !
 ! A36   A(5,20,21)            109.4712         estimate D2E/DX2                !
 ! A37   A(5,20,22)            109.4712         estimate D2E/DX2                !
 ! A38   A(5,20,28)             78.4012         estimate D2E/DX2                !
 ! A39   A(21,20,22)           129.9171         estimate D2E/DX2                !
 ! A40   A(22,20,28)            81.2114         estimate D2E/DX2                !
 ! A41   A(20,22,23)           122.2249         estimate D2E/DX2                !
 ! A42   A(20,22,24)           115.5502         estimate D2E/DX2                !
 ! A43   A(23,22,24)           122.2249         estimate D2E/DX2                !
 ! A44   A(22,24,25)           109.4712         estimate D2E/DX2                !
 ! A45   A(22,24,26)           109.4712         estimate D2E/DX2                !
 ! A46   A(22,24,27)           109.4712         estimate D2E/DX2                !
 ! A47   A(25,24,26)           109.4713         estimate D2E/DX2                !
 ! A48   A(25,24,27)           109.4712         estimate D2E/DX2                !
 ! A49   A(26,24,27)           109.4712         estimate D2E/DX2                !
 ! A50   A(13,28,15)            73.586          estimate D2E/DX2                !
 ! A51   A(13,28,20)            59.682          estimate D2E/DX2                !
 ! A52   A(13,28,21)            81.4527         estimate D2E/DX2                !
 ! A53   A(15,28,20)            81.8067         estimate D2E/DX2                !
 ! A54   A(15,28,21)            70.9431         estimate D2E/DX2                !
 ! D1    D(6,1,2,3)            125.0119         estimate D2E/DX2                !
 ! D2    D(6,1,2,7)           -113.9456         estimate D2E/DX2                !
 ! D3    D(6,1,2,8)              3.6429         estimate D2E/DX2                !
 ! D4    D(9,1,2,3)           -113.9542         estimate D2E/DX2                !
 ! D5    D(9,1,2,7)              7.0884         estimate D2E/DX2                !
 ! D6    D(9,1,2,8)            124.6768         estimate D2E/DX2                !
 ! D7    D(10,1,2,3)             3.6518         estimate D2E/DX2                !
 ! D8    D(10,1,2,7)           124.6944         estimate D2E/DX2                !
 ! D9    D(10,1,2,8)          -117.7172         estimate D2E/DX2                !
 ! D10   D(2,1,6,5)             55.0823         estimate D2E/DX2                !
 ! D11   D(2,1,6,14)           -65.9633         estimate D2E/DX2                !
 ! D12   D(2,1,6,15)           176.4253         estimate D2E/DX2                !
 ! D13   D(9,1,6,5)            -65.9498         estimate D2E/DX2                !
 ! D14   D(9,1,6,14)           173.0046         estimate D2E/DX2                !
 ! D15   D(9,1,6,15)            55.3933         estimate D2E/DX2                !
 ! D16   D(10,1,6,5)           176.4437         estimate D2E/DX2                !
 ! D17   D(10,1,6,14)           55.3981         estimate D2E/DX2                !
 ! D18   D(10,1,6,15)          -62.2133         estimate D2E/DX2                !
 ! D19   D(1,2,3,4)             69.3433         estimate D2E/DX2                !
 ! D20   D(1,2,3,16)           -65.7573         estimate D2E/DX2                !
 ! D21   D(7,2,3,4)            -51.7028         estimate D2E/DX2                !
 ! D22   D(7,2,3,16)           173.1966         estimate D2E/DX2                !
 ! D23   D(8,2,3,4)           -169.2902         estimate D2E/DX2                !
 ! D24   D(8,2,3,16)            55.6092         estimate D2E/DX2                !
 ! D25   D(2,3,4,11)            54.12           estimate D2E/DX2                !
 ! D26   D(2,3,4,12)          -176.9355         estimate D2E/DX2                !
 ! D27   D(16,3,4,11)         -173.0993         estimate D2E/DX2                !
 ! D28   D(16,3,4,12)          -44.1548         estimate D2E/DX2                !
 ! D29   D(2,3,16,17)         -179.0535         estimate D2E/DX2                !
 ! D30   D(2,3,16,18)          -59.0535         estimate D2E/DX2                !
 ! D31   D(2,3,16,19)           60.9465         estimate D2E/DX2                !
 ! D32   D(4,3,16,17)           43.7544         estimate D2E/DX2                !
 ! D33   D(4,3,16,18)          163.7544         estimate D2E/DX2                !
 ! D34   D(4,3,16,19)          -76.2456         estimate D2E/DX2                !
 ! D35   D(13,5,6,1)            65.8893         estimate D2E/DX2                !
 ! D36   D(13,5,6,14)         -173.0704         estimate D2E/DX2                !
 ! D37   D(13,5,6,15)          -55.4512         estimate D2E/DX2                !
 ! D38   D(20,5,6,1)          -176.5268         estimate D2E/DX2                !
 ! D39   D(20,5,6,14)          -55.4866         estimate D2E/DX2                !
 ! D40   D(20,5,6,15)           62.1326         estimate D2E/DX2                !
 ! D41   D(6,5,13,28)           71.113          estimate D2E/DX2                !
 ! D42   D(20,5,13,28)         -47.7716         estimate D2E/DX2                !
 ! D43   D(6,5,20,21)            1.2888         estimate D2E/DX2                !
 ! D44   D(6,5,20,22)         -146.586          estimate D2E/DX2                !
 ! D45   D(6,5,20,28)          -70.3547         estimate D2E/DX2                !
 ! D46   D(13,5,20,21)         120.062          estimate D2E/DX2                !
 ! D47   D(13,5,20,22)         -27.8128         estimate D2E/DX2                !
 ! D48   D(13,5,20,28)          48.4185         estimate D2E/DX2                !
 ! D49   D(1,6,15,28)         -127.2385         estimate D2E/DX2                !
 ! D50   D(5,6,15,28)           -4.8623         estimate D2E/DX2                !
 ! D51   D(14,6,15,28)         113.9563         estimate D2E/DX2                !
 ! D52   D(5,13,28,15)         -55.4349         estimate D2E/DX2                !
 ! D53   D(5,13,28,20)          34.5742         estimate D2E/DX2                !
 ! D54   D(5,13,28,21)          17.1119         estimate D2E/DX2                !
 ! D55   D(6,15,28,13)          30.9444         estimate D2E/DX2                !
 ! D56   D(6,15,28,20)         -29.7637         estimate D2E/DX2                !
 ! D57   D(6,15,28,21)         -55.4915         estimate D2E/DX2                !
 ! D58   D(5,20,22,23)         172.901          estimate D2E/DX2                !
 ! D59   D(5,20,22,24)          -7.1012         estimate D2E/DX2                !
 ! D60   D(21,20,22,23)         33.721          estimate D2E/DX2                !
 ! D61   D(21,20,22,24)       -146.2812         estimate D2E/DX2                !
 ! D62   D(28,20,22,23)         98.592          estimate D2E/DX2                !
 ! D63   D(28,20,22,24)        -81.4103         estimate D2E/DX2                !
 ! D64   D(5,20,28,13)         -26.1903         estimate D2E/DX2                !
 ! D65   D(5,20,28,15)          49.5378         estimate D2E/DX2                !
 ! D66   D(22,20,28,13)         85.8994         estimate D2E/DX2                !
 ! D67   D(22,20,28,15)        161.6275         estimate D2E/DX2                !
 ! D68   D(20,22,24,25)        -76.8923         estimate D2E/DX2                !
 ! D69   D(20,22,24,26)         43.1077         estimate D2E/DX2                !
 ! D70   D(20,22,24,27)        163.1077         estimate D2E/DX2                !
 ! D71   D(23,22,24,25)        103.1055         estimate D2E/DX2                !
 ! D72   D(23,22,24,26)       -136.8945         estimate D2E/DX2                !
 ! D73   D(23,22,24,27)        -16.8945         estimate D2E/DX2                !
 --------------------------------------------------------------------------------
 Trust Radius=3.00D-01 FncErr=1.00D-07 GrdErr=1.00D-06 EigMax=2.50D+02 EigMin=1.00D-04
 Number of steps in this run=    167 maximum allowed number of steps=    168.
 GradGradGradGradGradGradGradGradGradGradGradGradGradGradGradGradGradGrad

 Leave Link  103 at Tue Dec 13 10:23:52 2022, MaxMem=  4294967296 cpu:               0.2 elap:               0.0
 (Enter /n/sw/g16_nehalem/g16/l202.exe)
                          Input orientation:                          
 ---------------------------------------------------------------------
 Center     Atomic      Atomic             Coordinates (Angstroms)
 Number     Number       Type             X           Y           Z
 ---------------------------------------------------------------------
      1          6           0       -3.701985   -1.134261    0.000000
      2          6           0       -2.186879   -1.134261    0.000000
      3          6           0       -1.634948   -2.545330   -0.005042
      4          6           0       -1.790236   -3.345543   -1.168697
      5          6           0       -3.699736    1.082015    1.160172
      6          6           0       -4.252536   -0.328606    1.158876
      7          1           0       -1.814330   -0.585392   -0.904607
      8          1           0       -1.811585   -0.587629    0.903869
      9          1           0       -4.074673   -0.701232   -0.965385
     10          1           0       -4.077582   -2.188481    0.063502
     11          1           0       -1.417701   -2.907254   -2.131748
     12          1           0       -1.414213   -4.399894   -1.110469
     13          1           0       -4.071591    1.628616    0.253849
     14          1           0       -3.986532   -0.834328    2.124191
     15          1           0       -5.371084   -0.293545    1.093938
     16          6           0       -2.003744   -3.244261    1.316732
     17          1           0       -1.600220   -4.235246    1.320858
     18          1           0       -1.598645   -2.690781    2.137984
     19          1           0       -3.068609   -3.292376    1.409728
     20          7           0       -4.191923    1.802523    2.343185
     21          1           0       -4.763822    1.192115    2.891211
     22          6           0       -4.376931    3.222343    2.010347
     23          8           0       -4.900237    4.014156    2.788480
     24          6           0       -3.870414    3.650184    0.620386
     25          1           0       -2.804356    3.739543    0.641208
     26          1           0       -4.152622    2.914922   -0.103940
     27          1           0       -4.302335    4.593355    0.358137
     28         17           0       -5.956568    1.635471    1.181257
 ---------------------------------------------------------------------
                    Distance matrix (angstroms):
                    1          2          3          4          5
     1  C    0.000000
     2  C    1.515106   0.000000
     3  C    2.502755   1.515180   0.000000
     4  C    3.148079   2.532379   1.420756   0.000000
     5  C    2.501576   2.923459   4.333440   5.354725   0.000000
     6  C    1.514985   2.501802   3.622201   4.536785   1.515071
     7  H    2.163981   1.121768   2.163967   2.772861   3.255505
     8  H    2.165502   1.120996   2.165621   3.449938   2.533479
     9  H    1.121775   2.164081   3.205497   3.500338   2.799739
    10  H    1.120931   2.165680   2.469514   2.844126   3.470100
    11  H    3.592465   2.877410   2.168194   1.121761   5.653201
    12  H    4.139009   3.534758   2.170276   1.120911   6.358518
    13  H    2.799024   3.354112   4.840049   5.654243   1.121816
    14  H    2.164050   2.800160   3.604318   4.687539   2.164245
    15  H    2.165501   3.470254   4.498556   5.220792   2.165631
    16  C    3.011628   2.493876   1.540000   2.496638   4.649469
    17  H    3.972177   3.421248   2.148263   2.650578   5.719008
    18  H    3.379019   2.709197   2.148263   3.376323   4.427718
    19  H    2.654422   2.724379   2.148263   2.878426   4.426725
    20  N    3.788833   4.258570   5.563822   6.678622   1.470000
    21  H    3.859874   4.517938   5.669800   6.776091   2.034920
    22  C    4.845313   5.274261   6.696740   7.741734   2.400500
    23  O    5.976423   6.453227   7.841731   8.916082   3.562309
    24  C    4.827439   5.109803   6.616107   7.514529   2.629828
    25  H    4.997085   4.954432   6.425324   7.382590   2.851927
    26  H    4.075507   4.502314   6.013553   6.775543   2.272143
    27  H    5.770119   6.116290   7.629396   8.465693   3.651834
    28  Cl   3.761639   4.824659   6.128850   6.905874   2.323800
                    6          7          8          9         10
     6  C    0.000000
     7  H    3.204489   0.000000
     8  H    2.467866   1.808479   0.000000
     9  H    2.164017   2.264125   2.937445   0.000000
    10  H    2.165546   2.937591   2.898912   1.808460   0.000000
    11  H    5.051130   2.655981   3.840674   3.645056   3.522885
    12  H    5.457233   3.840951   4.329992   4.558420   3.655419
    13  H    2.163916   3.367354   3.231392   2.629588   3.821845
    14  H    1.121760   3.735511   2.506081   3.093697   2.467480
    15  H    1.120980   4.090214   3.576681   2.467327   2.515100
    16  C    3.685516   3.469843   2.695381   3.995472   2.643115
    17  H    4.724706   4.280184   3.677454   4.882528   3.450726
    18  H    3.685330   3.706284   2.447781   4.440711   3.271224
    19  H    3.201334   3.775861   3.025171   3.656139   2.012197
    20  N    2.438847   4.680089   3.667487   4.150804   4.597624
    21  H    2.361142   5.125160   3.979035   4.351210   4.460414
    22  C    3.653727   5.437162   4.724530   4.933639   5.758198
    23  O    4.683451   6.657143   5.853884   6.083416   6.824586
    24  C    4.033208   4.949059   4.719979   4.635862   5.868821
    25  H    4.349143   4.698378   4.447359   4.890331   6.090675
    26  H    3.482120   4.284958   4.331742   3.718163   5.106701
    27  H    4.986919   5.882525   5.774448   5.462252   6.791953
    28  Cl   2.600351   5.142100   4.711687   3.689144   4.404835
                   11         12         13         14         15
    11  H    0.000000
    12  H    1.808590   0.000000
    13  H    5.771336   6.727998   0.000000
    14  H    5.385994   5.458306   3.093785   0.000000
    15  H    5.732866   6.113783   2.467617   1.808550   0.000000
    16  C    3.514119   2.752152   5.399133   3.223540   4.482782
    17  H    3.703697   2.443985   6.452213   4.231556   5.459662
    18  H    4.279043   3.675259   5.321899   3.024667   4.589996
    19  H    3.926304   3.211699   5.153464   2.719382   3.793956
    20  N    7.064229   7.623213   2.100012   2.653889   2.710082
    21  H    7.295990   7.648784   2.761412   2.301950   2.409594
    22  C    7.967807   8.753039   2.391336   4.077004   3.766911
    23  O    9.178377   9.907089   3.577962   4.978347   4.652898
    24  C    7.522635   8.592587   2.064355   4.731360   4.246088
    25  H    7.334303   8.441049   2.492378   4.951473   4.801964
    26  H    6.744592   7.875183   1.337596   4.364519   3.635082
    27  H    8.413071   9.559110   2.975533   5.716504   5.056226
    28  Cl   7.225902   7.893708   2.100778   3.296979   2.017801
                   16         17         18         19         20
    16  C    0.000000
    17  H    1.070000   0.000000
    18  H    1.070000   1.747303   0.000000
    19  H    1.070000   1.747303   1.747303   0.000000
    20  N    5.595691   6.649566   5.192011   5.300111   0.000000
    21  H    5.456963   6.475387   5.065824   5.017888   1.000000
    22  C    6.923156   7.987563   6.534539   6.671883   1.470000
    23  O    7.952379   9.005368   7.501989   7.657757   2.364597
    24  C    7.176540   8.235560   6.904483   7.033143   2.546617
    25  H    7.061928   8.093771   6.711419   7.078725   2.928159
    26  H    6.676190   7.724617   6.555373   6.480495   2.688382
    27  H    8.223785   9.282912   7.970974   8.050632   3.426565
    28  Cl   6.281317   7.311810   6.214762   5.716308   2.119423
                   21         22         23         24         25
    21  H    0.000000
    22  C    2.246650   0.000000
    23  O    2.827204   1.227317   0.000000
    24  C    3.463659   1.540000   2.427683   0.000000
    25  H    3.923190   2.148263   3.013123   1.070000   0.000000
    26  H    3.508926   2.148263   3.183290   1.070000   1.747303
    27  H    4.265896   2.148263   2.568954   1.070000   1.747303
    28  Cl   2.131467   2.387636   3.058944   2.953927   3.828213
                   26         27         28
    26  H    0.000000
    27  H    1.747303   0.000000
    28  Cl   2.557918   3.487562   0.000000
 Stoichiometry    C9H16ClNO
 Framework group  C1[X(C9H16ClNO)]
 Deg. of freedom    78
 Full point group                 C1      NOp   1
 Largest Abelian subgroup         C1      NOp   1
 Largest concise Abelian subgroup C1      NOp   1
                         Standard orientation:                         
 ---------------------------------------------------------------------
 Center     Atomic      Atomic             Coordinates (Angstroms)
 Number     Number       Type             X           Y           Z
 ---------------------------------------------------------------------
      1          6           0        1.616035   -0.364246   -0.733833
      2          6           0        2.261398    0.829309   -0.059683
      3          6           0        3.718084    0.561706    0.260042
      4          6           0        4.653433    0.460140   -0.804549
      5          6           0       -0.608143    0.324728    0.180623
      6          6           0        0.376596   -0.814278    0.012119
      7          1           0        2.186038    1.723314   -0.733062
      8          1           0        1.708143    1.071429    0.884732
      9          1           0        1.339580   -0.093186   -1.786675
     10          1           0        2.350816   -1.209184   -0.785438
     11          1           0        4.689238    1.320048   -1.524010
     12          1           0        5.709885    0.209145   -0.526426
     13          1           0       -0.998165    0.631801   -0.825388
     14          1           0        0.670490   -1.205635    1.021481
     15          1           0       -0.112900   -1.654494   -0.545579
     16          6           0        3.813857   -0.554847    1.316326
     17          1           0        4.841615   -0.733021    1.554798
     18          1           0        3.289351   -0.256003    2.199777
     19          1           0        3.377150   -1.451304    0.928316
     20          7           0       -1.755509   -0.130534    0.978864
     21          1           0       -1.617007   -1.083554    1.248254
     22          6           0       -2.973606    0.552476    0.519911
     23          8           0       -4.088203    0.254462    0.938441
     24          6           0       -2.758151    1.666847   -0.520932
     25          1           0       -2.386873    2.543735   -0.032956
     26          1           0       -2.049877    1.339097   -1.252935
     27          1           0       -3.688003    1.891980   -1.000088
     28         17           0       -2.053666   -1.184537   -0.835560
 ---------------------------------------------------------------------
 Rotational constants (GHZ):           1.9372958           0.3140672           0.3073320
 Leave Link  202 at Tue Dec 13 10:23:52 2022, MaxMem=  4294967296 cpu:               2.5 elap:               0.2
 (Enter /n/sw/g16_nehalem/g16/l301.exe)
 Standard basis: 6-31G(d) (6D, 7F)
 Ernie: Thresh=  0.10000D-02 Tol=  0.10000D-05 Strict=F.
 There are   216 symmetry adapted cartesian basis functions of A   symmetry.
 There are   216 symmetry adapted basis functions of A   symmetry.
   216 basis functions,   424 primitive gaussians,   216 cartesian basis functions
    51 alpha electrons       51 beta electrons
       nuclear repulsion energy       818.6819962482 Hartrees.
 IExCor= 4639 DFT=T Ex+Corr=wB97XD ExCW=0 ScaHFX=  1.000000
 ScaDFX=  1.000000  1.000000  1.000000  1.000000 ScalE2=  1.000000  1.000000
 IRadAn=      5 IRanWt=     -1 IRanGd=            0 ICorTp=0 IEmpDi=121
 HFx  wShort=  0.000000 wLong=  0.200000 cFull=  0.222036 cShort=  0.000000 cLong=  0.777964
 DFx  wShort=  0.000000 wLong=  0.200000 cFull=  0.000000 cShort=  0.000000 cLong=  1.000000
 NAtoms=   28 NActive=   28 NUniq=   28 SFac= 1.00D+00 NAtFMM=   60 NAOKFM=F Big=F
 Integral buffers will be    131072 words long.
 Raffenetti 2 integral format.
 Two-electron integral symmetry is turned on.
 R6Disp:  Grimme-D2 Dispersion energy=       -0.0188557324 Hartrees.
 Nuclear repulsion after empirical dispersion term =      818.6631405158 Hartrees.
 ------------------------------------------------------------------------------
 Polarizable Continuum Model (PCM)
 =================================
 Model                : PCM.
 Atomic radii         : SMD-Coulomb.
 Polarization charges : Total charges.
 Charge compensation  : None.
 Solution method      : On-the-fly selection.
 Cavity type          : VdW (van der Waals Surface) (Alpha=1.000).
 Cavity algorithm     : GePol (No added spheres)
                        Default sphere list used, NSphG=   28.
                        Lebedev-Laikov grids with approx.  5.0 points / Ang**2.
                        Smoothing algorithm: York/Karplus (Gamma=1.0000).
                        Polarization charges: spherical gaussians, with
                                              point-specific exponents (IZeta= 3).
                        Self-potential: point-specific (ISelfS= 7).
                        Self-field    : sphere-specific E.n sum rule (ISelfD= 2).
 1st derivatives      : Analytical E(r).r(x)/FMM algorithm (CHGder, D1EAlg=3).
                        Cavity 1st derivative terms included.
 Solvent              : Dichloromethane, Eps=   8.930000 Eps(inf)=   2.028346
 ------------------------------------------------------------------------------
 GePol: Number of generator spheres                  =      28
 GePol: Total number of spheres                      =      28
 GePol: Number of exposed spheres                    =      28 (100.00%)
 GePol: Number of points                             =    2013
 GePol: Average weight of points                     =       0.12
 GePol: Minimum weight of points                     =   0.16D-08
 GePol: Maximum weight of points                     =    0.20498
 GePol: Number of points with low weight             =      97
 GePol: Fraction of low-weight points (<1% of avg)   =       4.82%
 GePol: Cavity surface area                          =    247.411 Ang**2
 GePol: Cavity volume                                =    230.888 Ang**3
 ------------------------------------------------------------------------------
 Atomic radii for non-electrostatic terms: SMD-CDS.
 ------------------------------------------------------------------------------
 PCM non-electrostatic energy =        -0.0047905730 Hartrees.
 Nuclear repulsion after PCM non-electrostatic terms =      818.6583499428 Hartrees.
 Leave Link  301 at Tue Dec 13 10:23:52 2022, MaxMem=  4294967296 cpu:               2.0 elap:               0.2
 (Enter /n/sw/g16_nehalem/g16/l302.exe)
 NPDir=0 NMtPBC=     1 NCelOv=     1 NCel=       1 NClECP=     1 NCelD=      1
         NCelK=      1 NCelE2=     1 NClLst=     1 CellRange=     0.0.
 One-electron integrals computed using PRISM.
 One-electron integral symmetry used in STVInt
 NBasis=   216 RedAO= T EigKep=  3.04D-03  NBF=   216
 NBsUse=   216 1.00D-06 EigRej= -1.00D+00 NBFU=   216
 Precomputing XC quadrature grid using
 IXCGrd= 4 IRadAn=           5 IRanWt=          -1 IRanGd=           0 AccXCQ= 0.00D+00.
 Generated NRdTot=       0 NPtTot=           0 NUsed=           0 NTot=          32
 NSgBfM=   215   215   215   215   215 MxSgAt=    28 MxSgA2=    28.
 Leave Link  302 at Tue Dec 13 10:23:53 2022, MaxMem=  4294967296 cpu:               6.8 elap:               0.5
 (Enter /n/sw/g16_nehalem/g16/l303.exe)
 DipDrv:  MaxL=1.
 Leave Link  303 at Tue Dec 13 10:23:53 2022, MaxMem=  4294967296 cpu:               0.9 elap:               0.1
 (Enter /n/sw/g16_nehalem/g16/l401.exe)
 ExpMin= 1.43D-01 ExpMax= 2.52D+04 ExpMxC= 3.78D+03 IAcc=3 IRadAn=         5 AccDes= 0.00D+00
 Harris functional with IExCor= 4639 and IRadAn=       5 diagonalized for initial guess.
 HarFok:  IExCor= 4639 AccDes= 0.00D+00 IRadAn=         5 IDoV= 1 UseB2=F ITyADJ=14
 ICtDFT=  3500011 ScaDFX=  1.000000  1.000000  1.000000  1.000000
 FoFCou: FMM=F IPFlag=           0 FMFlag=      100000 FMFlg1=           0
         NFxFlg=           0 DoJE=T BraDBF=F KetDBF=T FulRan=T
         wScrn=  0.000000 ICntrl=       500 IOpCl=  0 I1Cent=   200000004 NGrid=           0
         NMat0=    1 NMatS0=      1 NMatT0=    0 NMatD0=    1 NMtDS0=    0 NMtDT0=    0
 Petite list used in FoFCou.
 Harris En= -912.932142840899    
 JPrj=0 DoOrth=F DoCkMO=F.
 Leave Link  401 at Tue Dec 13 10:23:54 2022, MaxMem=  4294967296 cpu:              18.3 elap:               1.2
 (Enter /n/sw/g16_nehalem/g16/l502.exe)
 Integral symmetry usage will be decided dynamically.
 Closed shell SCF:
 Using DIIS extrapolation, IDIIS=  1040.
 NGot=  4294967296 LenX=  4294867895 LenY=  4294820798
 Requested convergence on RMS density matrix=1.00D-08 within 128 cycles.
 Requested convergence on MAX density matrix=1.00D-06.
 Requested convergence on             energy=1.00D-06.
 No special actions if energy rises.
 Fock matrices will be formed incrementally for  20 cycles.

 Cycle   1  Pass 1  IDiag  1:
 FoFJK:  IHMeth= 1 ICntrl=       0 DoSepK=T KAlg= 0 I1Cent=           0 FoldK=F
 IRaf=         1 NMat=       1 IRICut=       1 DoRegI=T DoRafI=F ISym2E= 0 IDoP0=0 IntGTp=1.
 FoFCou: FMM=F IPFlag=           0 FMFlag=      100000 FMFlg1=           0
         NFxFlg=           0 DoJE=T BraDBF=F KetDBF=F FulRan=T
         wScrn=  0.000000 ICntrl=       500 IOpCl=  0 I1Cent=           0 NGrid=           0
         NMat0=    1 NMatS0=      1 NMatT0=    0 NMatD0=    1 NMtDS0=    0 NMtDT0=    0
 Symmetry not used in FoFCou.
 Inv3:  Mode=1 IEnd=    12156507.
 Iteration    1 A*A^-1 deviation from unit magnitude is 7.33D-15 for    371.
 Iteration    1 A*A^-1 deviation from orthogonality  is 2.99D-15 for   1365    161.
 Iteration    1 A^-1*A deviation from unit magnitude is 7.55D-15 for    197.
 Iteration    1 A^-1*A deviation from orthogonality  is 6.21D-15 for   1226   1176.
 E= -941.823570164235    
 DIIS: error= 1.02D-01 at cycle   1 NSaved=   1.
 NSaved= 1 IEnMin= 1 EnMin= -941.823570164235     IErMin= 1 ErrMin= 1.02D-01
 ErrMax= 1.02D-01  0.00D+00 EMaxC= 1.00D-01 BMatC= 8.42D-01 BMatP= 8.42D-01
 IDIUse=3 WtCom= 0.00D+00 WtEn= 1.00D+00
 Coeff-Com:  0.100D+01
 Coeff-En:   0.100D+01
 Coeff:      0.100D+01
 Gap=     0.027 Goal=   None    Shift=    0.000
 GapD=    0.027 DampG=0.250 DampE=0.250 DampFc=0.2500 IDamp=-1.
 Damping current iteration by 2.50D-01
 RMSDP=8.13D-03 MaxDP=4.70D-01              OVMax= 7.16D-01

 Cycle   2  Pass 1  IDiag  1:
 RMSU=  2.03D-03    CP:  9.98D-01
 E= -941.984353422136     Delta-E=       -0.160783257901 Rises=F Damp=T
 DIIS: error= 6.82D-02 at cycle   2 NSaved=   2.
 NSaved= 2 IEnMin= 2 EnMin= -941.984353422136     IErMin= 2 ErrMin= 6.82D-02
 ErrMax= 6.82D-02  0.00D+00 EMaxC= 1.00D-01 BMatC= 3.42D-01 BMatP= 8.42D-01
 IDIUse=3 WtCom= 3.18D-01 WtEn= 6.82D-01
 Coeff-Com: -0.109D+01 0.209D+01
 Coeff-En:   0.000D+00 0.100D+01
 Coeff:     -0.348D+00 0.135D+01
 Gap=     0.148 Goal=   None    Shift=    0.000
 RMSDP=3.70D-03 MaxDP=1.57D-01 DE=-1.61D-01 OVMax= 3.68D-01

 Cycle   3  Pass 1  IDiag  1:
 RMSU=  2.04D-03    CP:  9.98D-01  2.52D+00
 E= -942.271323505143     Delta-E=       -0.286970083007 Rises=F Damp=F
 DIIS: error= 1.14D-02 at cycle   3 NSaved=   3.
 NSaved= 3 IEnMin= 3 EnMin= -942.271323505143     IErMin= 3 ErrMin= 1.14D-02
 ErrMax= 1.14D-02  0.00D+00 EMaxC= 1.00D-01 BMatC= 2.84D-02 BMatP= 3.42D-01
 IDIUse=3 WtCom= 8.86D-01 WtEn= 1.14D-01
 Coeff-Com:  0.270D+00-0.244D+00 0.974D+00
 Coeff-En:   0.000D+00 0.000D+00 0.100D+01
 Coeff:      0.239D+00-0.216D+00 0.977D+00
 Gap=     0.194 Goal=   None    Shift=    0.000
 RMSDP=1.60D-03 MaxDP=1.16D-01 DE=-2.87D-01 OVMax= 8.64D-02

 Cycle   4  Pass 1  IDiag  1:
 RMSU=  1.25D-03    CP:  9.97D-01  2.05D+00  1.13D+00
 E= -942.294490571219     Delta-E=       -0.023167066076 Rises=F Damp=F
 DIIS: error= 4.81D-03 at cycle   4 NSaved=   4.
 NSaved= 4 IEnMin= 4 EnMin= -942.294490571219     IErMin= 4 ErrMin= 4.81D-03
 ErrMax= 4.81D-03  0.00D+00 EMaxC= 1.00D-01 BMatC= 8.92D-03 BMatP= 2.84D-02
 IDIUse=3 WtCom= 9.52D-01 WtEn= 4.81D-02
 Coeff-Com:  0.205D+00-0.268D+00 0.467D+00 0.595D+00
 Coeff-En:   0.000D+00 0.000D+00 0.125D-01 0.987D+00
 Coeff:      0.195D+00-0.255D+00 0.445D+00 0.614D+00
 Gap=     0.212 Goal=   None    Shift=    0.000
 RMSDP=6.23D-04 MaxDP=4.05D-02 DE=-2.32D-02 OVMax= 5.80D-02

 Cycle   5  Pass 1  IDiag  1:
 RMSU=  3.98D-04    CP:  9.95D-01  2.26D+00  1.17D+00  8.28D-01
 E= -942.303900122753     Delta-E=       -0.009409551534 Rises=F Damp=F
 DIIS: error= 1.11D-03 at cycle   5 NSaved=   5.
 NSaved= 5 IEnMin= 5 EnMin= -942.303900122753     IErMin= 5 ErrMin= 1.11D-03
 ErrMax= 1.11D-03  0.00D+00 EMaxC= 1.00D-01 BMatC= 9.21D-04 BMatP= 8.92D-03
 IDIUse=3 WtCom= 9.89D-01 WtEn= 1.11D-02
 Coeff-Com:  0.121D+00-0.164D+00 0.171D+00 0.269D+00 0.603D+00
 Coeff-En:   0.000D+00 0.000D+00 0.000D+00 0.000D+00 0.100D+01
 Coeff:      0.120D+00-0.162D+00 0.169D+00 0.266D+00 0.607D+00
 Gap=     0.210 Goal=   None    Shift=    0.000
 RMSDP=2.21D-04 MaxDP=5.80D-03 DE=-9.41D-03 OVMax= 2.11D-02

 Cycle   6  Pass 1  IDiag  1:
 RMSU=  1.35D-04    CP:  9.95D-01  2.27D+00  1.19D+00  9.36D-01  1.24D+00
 E= -942.305528093051     Delta-E=       -0.001627970298 Rises=F Damp=F
 DIIS: error= 1.25D-03 at cycle   6 NSaved=   6.
 NSaved= 6 IEnMin= 6 EnMin= -942.305528093051     IErMin= 5 ErrMin= 1.11D-03
 ErrMax= 1.25D-03  0.00D+00 EMaxC= 1.00D-01 BMatC= 3.42D-04 BMatP= 9.21D-04
 IDIUse=3 WtCom= 9.89D-01 WtEn= 1.11D-02
 Coeff-Com:  0.307D-01-0.440D-01-0.759D-01-0.124D+00 0.523D-01 0.116D+01
 Coeff-En:   0.000D+00 0.000D+00 0.000D+00 0.000D+00 0.000D+00 0.100D+01
 Coeff:      0.304D-01-0.435D-01-0.751D-01-0.123D+00 0.518D-01 0.116D+01
 Gap=     0.208 Goal=   None    Shift=    0.000
 RMSDP=3.77D-04 MaxDP=1.01D-02 DE=-1.63D-03 OVMax= 4.76D-02

 Cycle   7  Pass 1  IDiag  1:
 RMSU=  9.11D-05    CP:  9.93D-01  2.32D+00  1.22D+00  1.10D+00  1.91D+00
                    CP:  1.71D+00
 E= -942.307262832723     Delta-E=       -0.001734739672 Rises=F Damp=F
 DIIS: error= 7.97D-04 at cycle   7 NSaved=   7.
 NSaved= 7 IEnMin= 7 EnMin= -942.307262832723     IErMin= 7 ErrMin= 7.97D-04
 ErrMax= 7.97D-04  0.00D+00 EMaxC= 1.00D-01 BMatC= 1.76D-04 BMatP= 3.42D-04
 IDIUse=3 WtCom= 9.92D-01 WtEn= 7.97D-03
 Coeff-Com:  0.867D-02-0.116D-01-0.647D-01-0.149D+00-0.269D+00 0.626D+00
 Coeff-Com:  0.860D+00
 Coeff-En:   0.000D+00 0.000D+00 0.000D+00 0.000D+00 0.000D+00 0.000D+00
 Coeff-En:   0.100D+01
 Coeff:      0.860D-02-0.115D-01-0.642D-01-0.148D+00-0.267D+00 0.621D+00
 Coeff:      0.861D+00
 Gap=     0.210 Goal=   None    Shift=    0.000
 RMSDP=2.80D-04 MaxDP=7.14D-03 DE=-1.73D-03 OVMax= 3.64D-02

 Cycle   8  Pass 1  IDiag  1:
 RMSU=  4.74D-05    CP:  9.92D-01  2.35D+00  1.22D+00  1.20D+00  2.41D+00
                    CP:  2.46D+00  1.68D+00
 E= -942.308165810527     Delta-E=       -0.000902977803 Rises=F Damp=F
 DIIS: error= 5.70D-04 at cycle   8 NSaved=   8.
 NSaved= 8 IEnMin= 8 EnMin= -942.308165810527     IErMin= 8 ErrMin= 5.70D-04
 ErrMax= 5.70D-04  0.00D+00 EMaxC= 1.00D-01 BMatC= 5.20D-05 BMatP= 1.76D-04
 IDIUse=3 WtCom= 9.94D-01 WtEn= 5.70D-03
 Coeff-Com:  0.640D-02-0.726D-02 0.374D-01-0.458D-02-0.183D+00-0.371D+00
 Coeff-Com: -0.155D-01 0.154D+01
 Coeff-En:   0.000D+00 0.000D+00 0.000D+00 0.000D+00 0.000D+00 0.000D+00
 Coeff-En:   0.000D+00 0.100D+01
 Coeff:      0.637D-02-0.722D-02 0.372D-01-0.455D-02-0.182D+00-0.369D+00
 Coeff:     -0.154D-01 0.153D+01
 Gap=     0.209 Goal=   None    Shift=    0.000
 RMSDP=3.81D-04 MaxDP=1.00D-02 DE=-9.03D-04 OVMax= 5.03D-02

 Cycle   9  Pass 1  IDiag  1:
 RMSU=  8.69D-05    CP:  9.90D-01  2.41D+00  1.22D+00  1.33D+00  3.00D+00
                    CP:  3.00D+00  2.89D+00  2.02D+00
 E= -942.308770185026     Delta-E=       -0.000604374499 Rises=F Damp=F
 DIIS: error= 2.60D-04 at cycle   9 NSaved=   9.
 NSaved= 9 IEnMin= 9 EnMin= -942.308770185026     IErMin= 9 ErrMin= 2.60D-04
 ErrMax= 2.60D-04  0.00D+00 EMaxC= 1.00D-01 BMatC= 9.24D-06 BMatP= 5.20D-05
 IDIUse=3 WtCom= 9.97D-01 WtEn= 2.60D-03
 Coeff-Com:  0.259D-02-0.311D-02 0.310D-01 0.256D-01 0.433D-01-0.212D+00
 Coeff-Com: -0.362D+00 0.569D+00 0.905D+00
 Coeff-En:   0.000D+00 0.000D+00 0.000D+00 0.000D+00 0.000D+00 0.000D+00
 Coeff-En:   0.000D+00 0.000D+00 0.100D+01
 Coeff:      0.258D-02-0.310D-02 0.310D-01 0.255D-01 0.431D-01-0.211D+00
 Coeff:     -0.361D+00 0.568D+00 0.905D+00
 Gap=     0.209 Goal=   None    Shift=    0.000
 RMSDP=1.10D-04 MaxDP=4.01D-03 DE=-6.04D-04 OVMax= 1.53D-02

 Cycle  10  Pass 1  IDiag  1:
 RMSU=  6.47D-05    CP:  9.90D-01  2.42D+00  1.21D+00  1.35D+00  3.00D+00
                    CP:  3.00D+00  3.00D+00  2.60D+00  1.71D+00
 E= -942.308834795231     Delta-E=       -0.000064610206 Rises=F Damp=F
 DIIS: error= 7.65D-05 at cycle  10 NSaved=  10.
 NSaved=10 IEnMin=10 EnMin= -942.308834795231     IErMin=10 ErrMin= 7.65D-05
 ErrMax= 7.65D-05  0.00D+00 EMaxC= 1.00D-01 BMatC= 7.77D-07 BMatP= 9.24D-06
 IDIUse=1 WtCom= 1.00D+00 WtEn= 0.00D+00
 Coeff-Com: -0.803D-03 0.106D-02 0.618D-04 0.121D-03 0.241D-01 0.499D-02
 Coeff-Com: -0.858D-01-0.666D-01 0.104D+00 0.102D+01
 Coeff:     -0.803D-03 0.106D-02 0.618D-04 0.121D-03 0.241D-01 0.499D-02
 Coeff:     -0.858D-01-0.666D-01 0.104D+00 0.102D+01
 Gap=     0.208 Goal=   None    Shift=    0.000
 RMSDP=5.39D-05 MaxDP=1.53D-03 DE=-6.46D-05 OVMax= 7.39D-03

 Cycle  11  Pass 1  IDiag  1:
 RMSU=  6.91D-06    CP:  9.90D-01  2.43D+00  1.21D+00  1.36D+00  3.00D+00
                    CP:  3.00D+00  3.00D+00  2.86D+00  2.08D+00  1.49D+00
 E= -942.308844929162     Delta-E=       -0.000010133930 Rises=F Damp=F
 DIIS: error= 2.18D-05 at cycle  11 NSaved=  11.
 NSaved=11 IEnMin=11 EnMin= -942.308844929162     IErMin=11 ErrMin= 2.18D-05
 ErrMax= 2.18D-05  0.00D+00 EMaxC= 1.00D-01 BMatC= 1.12D-07 BMatP= 7.77D-07
 IDIUse=1 WtCom= 1.00D+00 WtEn= 0.00D+00
 Coeff-Com: -0.362D-03 0.396D-03-0.473D-02-0.414D-02-0.194D-02 0.366D-01
 Coeff-Com:  0.306D-01-0.111D+00-0.115D+00 0.284D+00 0.886D+00
 Coeff:     -0.362D-03 0.396D-03-0.473D-02-0.414D-02-0.194D-02 0.366D-01
 Coeff:      0.306D-01-0.111D+00-0.115D+00 0.284D+00 0.886D+00
 Gap=     0.208 Goal=   None    Shift=    0.000
 RMSDP=1.52D-05 MaxDP=4.60D-04 DE=-1.01D-05 OVMax= 2.03D-03

 Cycle  12  Pass 1  IDiag  1:
 RMSU=  2.96D-06    CP:  9.90D-01  2.43D+00  1.21D+00  1.37D+00  3.00D+00
                    CP:  3.00D+00  3.00D+00  2.94D+00  2.18D+00  1.63D+00
                    CP:  1.28D+00
 E= -942.308845737757     Delta-E=       -0.000000808595 Rises=F Damp=F
 DIIS: error= 1.30D-05 at cycle  12 NSaved=  12.
 NSaved=12 IEnMin=12 EnMin= -942.308845737757     IErMin=12 ErrMin= 1.30D-05
 ErrMax= 1.30D-05  0.00D+00 EMaxC= 1.00D-01 BMatC= 2.05D-08 BMatP= 1.12D-07
 IDIUse=1 WtCom= 1.00D+00 WtEn= 0.00D+00
 Coeff-Com:  0.214D-03-0.291D-03-0.988D-04-0.171D-03-0.661D-02 0.405D-03
 Coeff-Com:  0.169D-01 0.555D-02-0.582D-02-0.149D+00 0.763D-01 0.106D+01
 Coeff:      0.214D-03-0.291D-03-0.988D-04-0.171D-03-0.661D-02 0.405D-03
 Coeff:      0.169D-01 0.555D-02-0.582D-02-0.149D+00 0.763D-01 0.106D+01
 Gap=     0.208 Goal=   None    Shift=    0.000
 RMSDP=3.04D-06 MaxDP=1.06D-04 DE=-8.09D-07 OVMax= 2.46D-04

 Cycle  13  Pass 1  IDiag  1:
 RMSU=  1.29D-06    CP:  9.90D-01  2.43D+00  1.21D+00  1.37D+00  3.00D+00
                    CP:  3.00D+00  3.00D+00  2.94D+00  2.20D+00  1.64D+00
                    CP:  1.44D+00  1.53D+00
 E= -942.308845846051     Delta-E=       -0.000000108294 Rises=F Damp=F
 DIIS: error= 6.88D-06 at cycle  13 NSaved=  13.
 NSaved=13 IEnMin=13 EnMin= -942.308845846051     IErMin=13 ErrMin= 6.88D-06
 ErrMax= 6.88D-06  0.00D+00 EMaxC= 1.00D-01 BMatC= 3.98D-09 BMatP= 2.05D-08
 IDIUse=1 WtCom= 1.00D+00 WtEn= 0.00D+00
 Coeff-Com:  0.126D-03-0.153D-03 0.734D-03 0.647D-03-0.169D-02-0.503D-02
 Coeff-Com:  0.791D-03 0.182D-01 0.175D-01-0.903D-01-0.117D+00 0.274D+00
 Coeff-Com:  0.902D+00
 Coeff:      0.126D-03-0.153D-03 0.734D-03 0.647D-03-0.169D-02-0.503D-02
 Coeff:      0.791D-03 0.182D-01 0.175D-01-0.903D-01-0.117D+00 0.274D+00
 Coeff:      0.902D+00
 Gap=     0.208 Goal=   None    Shift=    0.000
 RMSDP=1.36D-06 MaxDP=4.37D-05 DE=-1.08D-07 OVMax= 1.27D-04

 Cycle  14  Pass 1  IDiag  1:
 RMSU=  4.68D-07    CP:  9.90D-01  2.43D+00  1.21D+00  1.37D+00  3.00D+00
                    CP:  3.00D+00  3.00D+00  2.94D+00  2.20D+00  1.64D+00
                    CP:  1.51D+00  1.85D+00  1.49D+00
 E= -942.308845876377     Delta-E=       -0.000000030326 Rises=F Damp=F
 DIIS: error= 4.24D-06 at cycle  14 NSaved=  14.
 NSaved=14 IEnMin=14 EnMin= -942.308845876377     IErMin=14 ErrMin= 4.24D-06
 ErrMax= 4.24D-06  0.00D+00 EMaxC= 1.00D-01 BMatC= 1.19D-09 BMatP= 3.98D-09
 IDIUse=1 WtCom= 1.00D+00 WtEn= 0.00D+00
 Coeff-Com: -0.291D-04 0.426D-04 0.138D-03 0.248D-03 0.181D-02 0.343D-04
 Coeff-Com: -0.432D-02-0.668D-03 0.466D-02 0.233D-01-0.402D-01-0.265D+00
 Coeff-Com:  0.269D+00 0.101D+01
 Coeff:     -0.291D-04 0.426D-04 0.138D-03 0.248D-03 0.181D-02 0.343D-04
 Coeff:     -0.432D-02-0.668D-03 0.466D-02 0.233D-01-0.402D-01-0.265D+00
 Coeff:      0.269D+00 0.101D+01
 Gap=     0.208 Goal=   None    Shift=    0.000
 RMSDP=1.04D-06 MaxDP=3.48D-05 DE=-3.03D-08 OVMax= 8.83D-05

 Cycle  15  Pass 1  IDiag  1:
 RMSU=  2.97D-07    CP:  9.90D-01  2.43D+00  1.21D+00  1.37D+00  3.00D+00
                    CP:  3.00D+00  3.00D+00  2.94D+00  2.19D+00  1.63D+00
                    CP:  1.55D+00  2.04D+00  1.91D+00  1.59D+00
 E= -942.308845887040     Delta-E=       -0.000000010663 Rises=F Damp=F
 DIIS: error= 2.05D-06 at cycle  15 NSaved=  15.
 NSaved=15 IEnMin=15 EnMin= -942.308845887040     IErMin=15 ErrMin= 2.05D-06
 ErrMax= 2.05D-06  0.00D+00 EMaxC= 1.00D-01 BMatC= 3.12D-10 BMatP= 1.19D-09
 IDIUse=1 WtCom= 1.00D+00 WtEn= 0.00D+00
 Coeff-Com: -0.461D-04 0.589D-04-0.117D-03-0.586D-04 0.607D-03 0.775D-03
 Coeff-Com: -0.154D-02-0.362D-02-0.213D-02 0.268D-01 0.181D-01-0.139D+00
 Coeff-Com: -0.150D+00 0.253D+00 0.997D+00
 Coeff:     -0.461D-04 0.589D-04-0.117D-03-0.586D-04 0.607D-03 0.775D-03
 Coeff:     -0.154D-02-0.362D-02-0.213D-02 0.268D-01 0.181D-01-0.139D+00
 Coeff:     -0.150D+00 0.253D+00 0.997D+00
 Gap=     0.208 Goal=   None    Shift=    0.000
 RMSDP=5.37D-07 MaxDP=1.92D-05 DE=-1.07D-08 OVMax= 6.21D-05

 Cycle  16  Pass 1  IDiag  1:
 RMSU=  1.41D-07    CP:  9.90D-01  2.43D+00  1.21D+00  1.37D+00  3.00D+00
                    CP:  3.00D+00  3.00D+00  2.94D+00  2.19D+00  1.64D+00
                    CP:  1.57D+00  2.11D+00  2.12D+00  2.08D+00  1.51D+00
 E= -942.308845889597     Delta-E=       -0.000000002557 Rises=F Damp=F
 DIIS: error= 7.08D-07 at cycle  16 NSaved=  16.
 NSaved=16 IEnMin=16 EnMin= -942.308845889597     IErMin=16 ErrMin= 7.08D-07
 ErrMax= 7.08D-07  0.00D+00 EMaxC= 1.00D-01 BMatC= 1.40D-10 BMatP= 3.12D-10
 IDIUse=1 WtCom= 1.00D+00 WtEn= 0.00D+00
 Coeff-Com: -0.249D-04 0.312D-04-0.117D-03-0.115D-03-0.120D-03 0.677D-03
 Coeff-Com:  0.677D-03-0.183D-02-0.351D-02 0.402D-02 0.157D-01 0.243D-01
 Coeff-Com: -0.917D-01-0.200D+00 0.330D+00 0.922D+00
 Coeff:     -0.249D-04 0.312D-04-0.117D-03-0.115D-03-0.120D-03 0.677D-03
 Coeff:      0.677D-03-0.183D-02-0.351D-02 0.402D-02 0.157D-01 0.243D-01
 Coeff:     -0.917D-01-0.200D+00 0.330D+00 0.922D+00
 Gap=     0.208 Goal=   None    Shift=    0.000
 RMSDP=2.26D-07 MaxDP=7.60D-06 DE=-2.56D-09 OVMax= 2.53D-05

 Cycle  17  Pass 1  IDiag  1:
 RMSU=  6.69D-08    CP:  9.90D-01  2.43D+00  1.21D+00  1.37D+00  3.00D+00
                    CP:  3.00D+00  3.00D+00  2.94D+00  2.20D+00  1.64D+00
                    CP:  1.58D+00  2.14D+00  2.19D+00  2.27D+00  1.82D+00
                    CP:  1.26D+00
 E= -942.308845890030     Delta-E=       -0.000000000432 Rises=F Damp=F
 DIIS: error= 2.13D-07 at cycle  17 NSaved=  17.
 NSaved=17 IEnMin=17 EnMin= -942.308845890030     IErMin=17 ErrMin= 2.13D-07
 ErrMax= 2.13D-07  0.00D+00 EMaxC= 1.00D-01 BMatC= 2.09D-11 BMatP= 1.40D-10
 IDIUse=1 WtCom= 1.00D+00 WtEn= 0.00D+00
 Coeff-Com: -0.374D-05 0.552D-05 0.342D-07-0.172D-04-0.134D-03-0.356D-04
 Coeff-Com:  0.432D-03 0.645D-03-0.384D-03-0.447D-02-0.295D-02 0.287D-01
 Coeff-Com:  0.251D-01-0.799D-01-0.109D+00 0.198D-01 0.112D+01
 Coeff:     -0.374D-05 0.552D-05 0.342D-07-0.172D-04-0.134D-03-0.356D-04
 Coeff:      0.432D-03 0.645D-03-0.384D-03-0.447D-02-0.295D-02 0.287D-01
 Coeff:      0.251D-01-0.799D-01-0.109D+00 0.198D-01 0.112D+01
 Gap=     0.208 Goal=   None    Shift=    0.000
 RMSDP=9.22D-08 MaxDP=2.89D-06 DE=-4.32D-10 OVMax= 7.92D-06

 Cycle  18  Pass 1  IDiag  1:
 RMSU=  2.57D-08    CP:  9.90D-01  2.43D+00  1.21D+00  1.37D+00  3.00D+00
                    CP:  3.00D+00  3.00D+00  2.94D+00  2.19D+00  1.64D+00
                    CP:  1.58D+00  2.15D+00  2.21D+00  2.31D+00  1.94D+00
                    CP:  1.41D+00  1.60D+00
 E= -942.308845890106     Delta-E=       -0.000000000076 Rises=F Damp=F
 DIIS: error= 8.91D-08 at cycle  18 NSaved=  18.
 NSaved=18 IEnMin=18 EnMin= -942.308845890106     IErMin=18 ErrMin= 8.91D-08
 ErrMax= 8.91D-08  0.00D+00 EMaxC= 1.00D-01 BMatC= 1.18D-12 BMatP= 2.09D-11
 IDIUse=1 WtCom= 1.00D+00 WtEn= 0.00D+00
 Coeff-Com:  0.105D-05-0.131D-05 0.981D-05 0.132D-04 0.132D-04-0.692D-04
 Coeff-Com: -0.490D-04 0.118D-03 0.455D-03-0.287D-03-0.135D-02-0.338D-02
 Coeff-Com:  0.109D-01 0.212D-01-0.518D-01-0.831D-01 0.381D-01 0.107D+01
 Coeff:      0.105D-05-0.131D-05 0.981D-05 0.132D-04 0.132D-04-0.692D-04
 Coeff:     -0.490D-04 0.118D-03 0.455D-03-0.287D-03-0.135D-02-0.338D-02
 Coeff:      0.109D-01 0.212D-01-0.518D-01-0.831D-01 0.381D-01 0.107D+01
 Gap=     0.208 Goal=   None    Shift=    0.000
 RMSDP=2.27D-08 MaxDP=5.90D-07 DE=-7.62D-11 OVMax= 2.48D-06

 Cycle  19  Pass 1  IDiag  1:
 RMSU=  7.18D-09    CP:  9.90D-01  2.43D+00  1.21D+00  1.37D+00  3.00D+00
                    CP:  3.00D+00  3.00D+00  2.94D+00  2.19D+00  1.64D+00
                    CP:  1.58D+00  2.15D+00  2.21D+00  2.33D+00  1.97D+00
                    CP:  1.46D+00  1.77D+00  1.22D+00
 E= -942.308845890118     Delta-E=       -0.000000000013 Rises=F Damp=F
 DIIS: error= 2.31D-08 at cycle  19 NSaved=  19.
 NSaved=19 IEnMin=19 EnMin= -942.308845890118     IErMin=19 ErrMin= 2.31D-08
 ErrMax= 2.31D-08  0.00D+00 EMaxC= 1.00D-01 BMatC= 7.32D-14 BMatP= 1.18D-12
 IDIUse=1 WtCom= 1.00D+00 WtEn= 0.00D+00
 Coeff-Com:  0.128D-06-0.208D-06 0.240D-06 0.308D-05 0.188D-04-0.262D-05
 Coeff-Com: -0.455D-04-0.765D-04 0.749D-04 0.496D-03 0.348D-03-0.350D-02
 Coeff-Com: -0.196D-02 0.109D-01 0.551D-02-0.846D-02-0.115D+00 0.108D+00
 Coeff-Com:  0.100D+01
 Coeff:      0.128D-06-0.208D-06 0.240D-06 0.308D-05 0.188D-04-0.262D-05
 Coeff:     -0.455D-04-0.765D-04 0.749D-04 0.496D-03 0.348D-03-0.350D-02
 Coeff:     -0.196D-02 0.109D-01 0.551D-02-0.846D-02-0.115D+00 0.108D+00
 Coeff:      0.100D+01
 Gap=     0.208 Goal=   None    Shift=    0.000
 RMSDP=5.99D-09 MaxDP=1.78D-07 DE=-1.25D-11 OVMax= 5.11D-07

 Error on total polarization charges =  0.03161
 SCF Done:  E(RwB97XD) =  -942.308845890     A.U. after   19 cycles
            NFock= 19  Conv=0.60D-08     -V/T= 2.0057
 KE= 9.369436391991D+02 PE=-3.850538505229D+03 EE= 1.152627670197D+03
 SMD-CDS (non-electrostatic) energy       (kcal/mol) =      -3.01
 (included in total energy above)
 Leave Link  502 at Tue Dec 13 10:24:37 2022, MaxMem=  4294967296 cpu:             661.6 elap:              42.5
 (Enter /n/sw/g16_nehalem/g16/l601.exe)
 Copying SCF densities to generalized density rwf, IOpCl= 0 IROHF=0.

 **********************************************************************

            Population analysis using the SCF density.

 **********************************************************************

 Orbital symmetries:
       Occupied  (A) (A) (A) (A) (A) (A) (A) (A) (A) (A) (A) (A)
                 (A) (A) (A) (A) (A) (A) (A) (A) (A) (A) (A) (A)
                 (A) (A) (A) (A) (A) (A) (A) (A) (A) (A) (A) (A)
                 (A) (A) (A) (A) (A) (A) (A) (A) (A) (A) (A) (A)
                 (A) (A) (A)
       Virtual   (A) (A) (A) (A) (A) (A) (A) (A) (A) (A) (A) (A)
                 (A) (A) (A) (A) (A) (A) (A) (A) (A) (A) (A) (A)
                 (A) (A) (A) (A) (A) (A) (A) (A) (A) (A) (A) (A)
                 (A) (A) (A) (A) (A) (A) (A) (A) (A) (A) (A) (A)
                 (A) (A) (A) (A) (A) (A) (A) (A) (A) (A) (A) (A)
                 (A) (A) (A) (A) (A) (A) (A) (A) (A) (A) (A) (A)
                 (A) (A) (A) (A) (A) (A) (A) (A) (A) (A) (A) (A)
                 (A) (A) (A) (A) (A) (A) (A) (A) (A) (A) (A) (A)
                 (A) (A) (A) (A) (A) (A) (A) (A) (A) (A) (A) (A)
                 (A) (A) (A) (A) (A) (A) (A) (A) (A) (A) (A) (A)
                 (A) (A) (A) (A) (A) (A) (A) (A) (A) (A) (A) (A)
                 (A) (A) (A) (A) (A) (A) (A) (A) (A) (A) (A) (A)
                 (A) (A) (A) (A) (A) (A) (A) (A) (A) (A) (A) (A)
                 (A) (A) (A) (A) (A) (A) (A) (A) (A)
 The electronic state is 1-A.
 Alpha  occ. eigenvalues -- -101.61733 -19.27509 -14.54349 -10.44934 -10.39784
 Alpha  occ. eigenvalues --  -10.32063 -10.30380 -10.30117 -10.29692 -10.29649
 Alpha  occ. eigenvalues --  -10.29360 -10.27589  -9.49690  -7.24102  -7.23748
 Alpha  occ. eigenvalues --   -7.23638  -1.16208  -1.07808  -0.92489  -0.88175
 Alpha  occ. eigenvalues --   -0.86133  -0.84009  -0.80371  -0.76928  -0.74085
 Alpha  occ. eigenvalues --   -0.71970  -0.67144  -0.61218  -0.60422  -0.58186
 Alpha  occ. eigenvalues --   -0.56021  -0.55405  -0.53387  -0.52369  -0.51533
 Alpha  occ. eigenvalues --   -0.50761  -0.50136  -0.48915  -0.47007  -0.46260
 Alpha  occ. eigenvalues --   -0.44415  -0.44189  -0.42643  -0.41902  -0.40928
 Alpha  occ. eigenvalues --   -0.38624  -0.36284  -0.36048  -0.32800  -0.31171
 Alpha  occ. eigenvalues --   -0.27286
 Alpha virt. eigenvalues --   -0.06507   0.04535   0.07236   0.16352   0.17020
 Alpha virt. eigenvalues --    0.18049   0.19452   0.20785   0.22890   0.23585
 Alpha virt. eigenvalues --    0.23996   0.24180   0.25115   0.26072   0.26174
 Alpha virt. eigenvalues --    0.27039   0.27877   0.29628   0.30089   0.30866
 Alpha virt. eigenvalues --    0.32570   0.33331   0.34256   0.34830   0.36145
 Alpha virt. eigenvalues --    0.39539   0.41214   0.42557   0.42956   0.50749
 Alpha virt. eigenvalues --    0.55875   0.57226   0.58036   0.59722   0.61077
 Alpha virt. eigenvalues --    0.61468   0.62582   0.63820   0.64111   0.65268
 Alpha virt. eigenvalues --    0.66195   0.67210   0.68144   0.69422   0.71703
 Alpha virt. eigenvalues --    0.73531   0.74882   0.75300   0.76656   0.78699
 Alpha virt. eigenvalues --    0.79917   0.80306   0.81127   0.82390   0.83551
 Alpha virt. eigenvalues --    0.83842   0.87669   0.89810   0.89996   0.91876
 Alpha virt. eigenvalues --    0.92639   0.93855   0.94951   0.96268   0.96490
 Alpha virt. eigenvalues --    0.97928   0.98891   0.99536   1.00855   1.01387
 Alpha virt. eigenvalues --    1.01713   1.03299   1.04008   1.04276   1.05555
 Alpha virt. eigenvalues --    1.05912   1.06602   1.07833   1.08545   1.09881
 Alpha virt. eigenvalues --    1.10947   1.13573   1.13867   1.14923   1.17138
 Alpha virt. eigenvalues --    1.19473   1.21157   1.22961   1.27106   1.34746
 Alpha virt. eigenvalues --    1.36677   1.41653   1.42867   1.49446   1.50329
 Alpha virt. eigenvalues --    1.51587   1.54888   1.58224   1.64745   1.69683
 Alpha virt. eigenvalues --    1.72113   1.74208   1.76979   1.77208   1.81654
 Alpha virt. eigenvalues --    1.85260   1.85349   1.86567   1.86910   1.91239
 Alpha virt. eigenvalues --    1.93260   1.94544   1.97545   1.98845   1.99087
 Alpha virt. eigenvalues --    2.02678   2.03492   2.06699   2.08251   2.09457
 Alpha virt. eigenvalues --    2.10799   2.12336   2.15579   2.16254   2.20265
 Alpha virt. eigenvalues --    2.21354   2.22368   2.28069   2.29926   2.34550
 Alpha virt. eigenvalues --    2.35755   2.36674   2.37438   2.39570   2.41885
 Alpha virt. eigenvalues --    2.42815   2.47323   2.48584   2.52090   2.56806
 Alpha virt. eigenvalues --    2.61866   2.63899   2.65226   2.67848   2.72967
 Alpha virt. eigenvalues --    2.74487   2.78897   2.83877   2.86827   2.89699
 Alpha virt. eigenvalues --    2.92903   3.06293   3.11821   4.06630   4.16531
 Alpha virt. eigenvalues --    4.24531   4.29068   4.31880   4.34637   4.42940
 Alpha virt. eigenvalues --    4.48679   4.53532   4.58113   4.63098   4.65923
          Condensed to atoms (all electrons):
               1          2          3          4          5          6
     1  C    5.132485   0.319755  -0.042735  -0.012327  -0.048835   0.322163
     2  C    0.319755   5.186017   0.384698  -0.060500  -0.008512  -0.047930
     3  C   -0.042735   0.384698   4.826207   0.593821   0.000174   0.004296
     4  C   -0.012327  -0.060500   0.593821   5.247785  -0.000019   0.000618
     5  C   -0.048835  -0.008512   0.000174  -0.000019   5.259775   0.324006
     6  C    0.322163  -0.047930   0.004296   0.000618   0.324006   5.318383
     7  H   -0.031433   0.369621  -0.030046  -0.004262   0.001217   0.001916
     8  H   -0.056481   0.379082  -0.031075   0.004651   0.005377  -0.006675
     9  H    0.384207  -0.036053   0.001088   0.001655  -0.007261  -0.037663
    10  H    0.388247  -0.048732  -0.003471   0.002560   0.004402  -0.031078
    11  H    0.000324  -0.006313  -0.032822   0.364696   0.000001  -0.000008
    12  H   -0.000016   0.004560  -0.031230   0.367469   0.000000  -0.000001
    13  H    0.000297  -0.000404   0.000016   0.000000   0.377652  -0.057534
    14  H   -0.031516  -0.004515  -0.000070   0.000033  -0.036936   0.362126
    15  H   -0.027944   0.004246  -0.000076  -0.000003  -0.032566   0.397799
    16  C   -0.005244  -0.085592   0.376852  -0.065748  -0.000003  -0.000954
    17  H    0.000063   0.005249  -0.029785  -0.004520  -0.000001   0.000040
    18  H   -0.001132  -0.004242  -0.032923   0.004753  -0.000028   0.000351
    19  H    0.005798  -0.003055  -0.031957  -0.008713   0.000048  -0.002144
    20  N    0.003867  -0.000048  -0.000002   0.000000   0.369982  -0.034201
    21  H    0.000038  -0.000003   0.000000   0.000000  -0.030214   0.001496
    22  C   -0.000097   0.000004   0.000000   0.000000  -0.029455   0.002582
    23  O    0.000001   0.000000   0.000000   0.000000   0.002204  -0.000111
    24  C    0.000085  -0.000002   0.000000   0.000000  -0.020099   0.001441
    25  H   -0.000015   0.000004   0.000000   0.000000  -0.000703   0.000049
    26  H    0.000030   0.000022   0.000000   0.000000  -0.032169   0.001632
    27  H   -0.000001   0.000000   0.000000   0.000000   0.001740  -0.000036
    28  Cl   0.003392  -0.000294   0.000006   0.000000  -0.158148  -0.117690
               7          8          9         10         11         12
     1  C   -0.031433  -0.056481   0.384207   0.388247   0.000324  -0.000016
     2  C    0.369621   0.379082  -0.036053  -0.048732  -0.006313   0.004560
     3  C   -0.030046  -0.031075   0.001088  -0.003471  -0.032822  -0.031230
     4  C   -0.004262   0.004651   0.001655   0.002560   0.364696   0.367469
     5  C    0.001217   0.005377  -0.007261   0.004402   0.000001   0.000000
     6  C    0.001916  -0.006675  -0.037663  -0.031078  -0.000008  -0.000001
     7  H    0.544744  -0.028238  -0.009052   0.003523   0.003278  -0.000078
     8  H   -0.028238   0.559535   0.003679   0.002911  -0.000048  -0.000130
     9  H   -0.009052   0.003679   0.538732  -0.024195  -0.000065   0.000002
    10  H    0.003523   0.002911  -0.024195   0.526144   0.000161  -0.000174
    11  H    0.003278  -0.000048  -0.000065   0.000161   0.544369  -0.042129
    12  H   -0.000078  -0.000130   0.000002  -0.000174  -0.042129   0.539714
    13  H   -0.000121   0.000300   0.003952  -0.000123   0.000000   0.000000
    14  H   -0.000027   0.002369   0.004383  -0.004656  -0.000001   0.000000
    15  H   -0.000160   0.000441  -0.003407  -0.001569   0.000000   0.000000
    16  C    0.005368  -0.007012   0.000238  -0.001241   0.004983  -0.009027
    17  H   -0.000142   0.000015  -0.000002  -0.000188  -0.000045   0.004026
    18  H   -0.000018   0.004799  -0.000009   0.000272  -0.000165   0.000031
    19  H   -0.000026  -0.000282   0.000102   0.002755  -0.000032   0.000449
    20  N   -0.000001  -0.000142   0.000010  -0.000076   0.000000   0.000000
    21  H   -0.000001   0.000008   0.000019  -0.000007   0.000000   0.000000
    22  C    0.000000   0.000007   0.000007   0.000001   0.000000   0.000000
    23  O    0.000000   0.000000   0.000000   0.000000   0.000000   0.000000
    24  C    0.000001  -0.000011  -0.000048   0.000000   0.000000   0.000000
    25  H    0.000000   0.000006   0.000001   0.000000   0.000000   0.000000
    26  H    0.000003  -0.000010  -0.000135   0.000001   0.000000   0.000000
    27  H    0.000000   0.000000   0.000000   0.000000   0.000000   0.000000
    28  Cl   0.000023   0.000180   0.001938  -0.000099   0.000000   0.000000
              13         14         15         16         17         18
     1  C    0.000297  -0.031516  -0.027944  -0.005244   0.000063  -0.001132
     2  C   -0.000404  -0.004515   0.004246  -0.085592   0.005249  -0.004242
     3  C    0.000016  -0.000070  -0.000076   0.376852  -0.029785  -0.032923
     4  C    0.000000   0.000033  -0.000003  -0.065748  -0.004520   0.004753
     5  C    0.377652  -0.036936  -0.032566  -0.000003  -0.000001  -0.000028
     6  C   -0.057534   0.362126   0.397799  -0.000954   0.000040   0.000351
     7  H   -0.000121  -0.000027  -0.000160   0.005368  -0.000142  -0.000018
     8  H    0.000300   0.002369   0.000441  -0.007012   0.000015   0.004799
     9  H    0.003952   0.004383  -0.003407   0.000238  -0.000002  -0.000009
    10  H   -0.000123  -0.004656  -0.001569  -0.001241  -0.000188   0.000272
    11  H    0.000000  -0.000001   0.000000   0.004983  -0.000045  -0.000165
    12  H    0.000000   0.000000   0.000000  -0.009027   0.004026   0.000031
    13  H    0.505042   0.004388  -0.000070  -0.000001   0.000000   0.000000
    14  H    0.004388   0.529958  -0.023058   0.001353   0.000003   0.000287
    15  H   -0.000070  -0.023058   0.464482  -0.000025   0.000000   0.000004
    16  C   -0.000001   0.001353  -0.000025   5.202890   0.378917   0.374388
    17  H    0.000000   0.000003   0.000000   0.378917   0.509384  -0.024653
    18  H    0.000000   0.000287   0.000004   0.374388  -0.024653   0.529132
    19  H    0.000000   0.000955   0.000013   0.381037  -0.023055  -0.029681
    20  N   -0.054036  -0.006338  -0.007403   0.000000   0.000000   0.000000
    21  H    0.005081   0.004011   0.001666  -0.000001   0.000000   0.000000
    22  C   -0.005679   0.000097   0.000054   0.000000   0.000000   0.000000
    23  O    0.000316   0.000002   0.000002   0.000000   0.000000   0.000000
    24  C   -0.007893  -0.000079   0.000248   0.000000   0.000000   0.000000
    25  H   -0.002137   0.000001  -0.000005   0.000000   0.000000   0.000000
    26  H    0.000129  -0.000066  -0.000006   0.000000   0.000000   0.000000
    27  H    0.001100   0.000001   0.000004   0.000000   0.000000   0.000000
    28  Cl  -0.016155   0.005343  -0.044682   0.000001   0.000000   0.000000
              19         20         21         22         23         24
     1  C    0.005798   0.003867   0.000038  -0.000097   0.000001   0.000085
     2  C   -0.003055  -0.000048  -0.000003   0.000004   0.000000  -0.000002
     3  C   -0.031957  -0.000002   0.000000   0.000000   0.000000   0.000000
     4  C   -0.008713   0.000000   0.000000   0.000000   0.000000   0.000000
     5  C    0.000048   0.369982  -0.030214  -0.029455   0.002204  -0.020099
     6  C   -0.002144  -0.034201   0.001496   0.002582  -0.000111   0.001441
     7  H   -0.000026  -0.000001  -0.000001   0.000000   0.000000   0.000001
     8  H   -0.000282  -0.000142   0.000008   0.000007   0.000000  -0.000011
     9  H    0.000102   0.000010   0.000019   0.000007   0.000000  -0.000048
    10  H    0.002755  -0.000076  -0.000007   0.000001   0.000000   0.000000
    11  H   -0.000032   0.000000   0.000000   0.000000   0.000000   0.000000
    12  H    0.000449   0.000000   0.000000   0.000000   0.000000   0.000000
    13  H    0.000000  -0.054036   0.005081  -0.005679   0.000316  -0.007893
    14  H    0.000955  -0.006338   0.004011   0.000097   0.000002  -0.000079
    15  H    0.000013  -0.007403   0.001666   0.000054   0.000002   0.000248
    16  C    0.381037   0.000000  -0.000001   0.000000   0.000000   0.000000
    17  H   -0.023055   0.000000   0.000000   0.000000   0.000000   0.000000
    18  H   -0.029681   0.000000   0.000000   0.000000   0.000000   0.000000
    19  H    0.505656  -0.000001  -0.000001   0.000000   0.000000   0.000000
    20  N   -0.000001   7.326368   0.301656   0.139147  -0.067046  -0.096827
    21  H   -0.000001   0.301656   0.291871  -0.008496   0.001904   0.003658
    22  C    0.000000   0.139147  -0.008496   4.450403   0.581995   0.357542
    23  O    0.000000  -0.067046   0.001904   0.581995   8.037545  -0.066544
    24  C    0.000000  -0.096827   0.003658   0.357542  -0.066544   5.344039
    25  H    0.000000   0.000698  -0.000148  -0.023051   0.000129   0.360258
    26  H    0.000000   0.006151  -0.000471  -0.024989   0.002191   0.372123
    27  H    0.000000   0.003288  -0.000011  -0.021671   0.001268   0.371899
    28  Cl  -0.000001  -0.373740  -0.019401   0.011792  -0.028829  -0.040368
              25         26         27         28
     1  C   -0.000015   0.000030  -0.000001   0.003392
     2  C    0.000004   0.000022   0.000000  -0.000294
     3  C    0.000000   0.000000   0.000000   0.000006
     4  C    0.000000   0.000000   0.000000   0.000000
     5  C   -0.000703  -0.032169   0.001740  -0.158148
     6  C    0.000049   0.001632  -0.000036  -0.117690
     7  H    0.000000   0.000003   0.000000   0.000023
     8  H    0.000006  -0.000010   0.000000   0.000180
     9  H    0.000001  -0.000135   0.000000   0.001938
    10  H    0.000000   0.000001   0.000000  -0.000099
    11  H    0.000000   0.000000   0.000000   0.000000
    12  H    0.000000   0.000000   0.000000   0.000000
    13  H   -0.002137   0.000129   0.001100  -0.016155
    14  H    0.000001  -0.000066   0.000001   0.005343
    15  H   -0.000005  -0.000006   0.000004  -0.044682
    16  C    0.000000   0.000000   0.000000   0.000001
    17  H    0.000000   0.000000   0.000000   0.000000
    18  H    0.000000   0.000000   0.000000   0.000000
    19  H    0.000000   0.000000   0.000000  -0.000001
    20  N    0.000698   0.006151   0.003288  -0.373740
    21  H   -0.000148  -0.000471  -0.000011  -0.019401
    22  C   -0.023051  -0.024989  -0.021671   0.011792
    23  O    0.000129   0.002191   0.001268  -0.028829
    24  C    0.360258   0.372123   0.371899  -0.040368
    25  H    0.465066  -0.022216  -0.017377   0.004075
    26  H   -0.022216   0.494122  -0.020029  -0.004917
    27  H   -0.017377  -0.020029   0.446959  -0.001659
    28  Cl   0.004075  -0.004917  -0.001659  18.349506
 Mulliken charges:
               1
     1  C   -0.302978
     2  C   -0.347061
     3  C    0.079034
     4  C   -0.431950
     5  C    0.058373
     6  C   -0.402875
     7  H    0.173913
     8  H    0.166742
     9  H    0.177877
    10  H    0.184631
    11  H    0.163816
    12  H    0.166534
    13  H    0.245879
    14  H    0.191951
    15  H    0.272016
    16  C   -0.551180
    17  H    0.184695
    18  H    0.178836
    19  H    0.202136
    20  N   -0.511309
    21  H    0.447345
    22  C    0.569805
    23  O   -0.465026
    24  C   -0.579424
    25  H    0.235364
    26  H    0.228603
    27  H    0.234526
    28  Cl  -0.570273
 Sum of Mulliken charges =   0.00000
 Mulliken charges with hydrogens summed into heavy atoms:
               1
     1  C    0.059531
     2  C   -0.006406
     3  C    0.079034
     4  C   -0.101600
     5  C    0.304252
     6  C    0.061092
    16  C    0.014487
    20  N   -0.063963
    22  C    0.569805
    23  O   -0.465026
    24  C    0.119070
    28  Cl  -0.570273
 Electronic spatial extent (au):  <R**2>=           3672.6938
 Charge=              0.0000 electrons
 Dipole moment (field-independent basis, Debye):
    X=              5.0249    Y=              3.1695    Z=              1.8517  Tot=              6.2228
 Quadrupole moment (field-independent basis, Debye-Ang):
   XX=           -106.5793   YY=            -80.0237   ZZ=            -83.0159
   XY=            -10.8577   XZ=              1.2888   YZ=             -8.0259
 Traceless Quadrupole moment (field-independent basis, Debye-Ang):
   XX=            -16.7063   YY=              9.8493   ZZ=              6.8570
   XY=            -10.8577   XZ=              1.2888   YZ=             -8.0259
 Octapole moment (field-independent basis, Debye-Ang**2):
  XXX=             77.0146  YYY=              8.0905  ZZZ=              7.0639  XYY=            -10.2402
  XXY=             21.2541  XXZ=             -5.2406  XZZ=             -0.4198  YZZ=              4.0802
  YYZ=              6.9248  XYZ=             10.3366
 Hexadecapole moment (field-independent basis, Debye-Ang**3):
 XXXX=          -4369.0729 YYYY=           -476.9140 ZZZZ=           -408.8988 XXXY=            -79.7609
 XXXZ=            104.8128 YYYX=            -44.0716 YYYZ=            -15.8306 ZZZX=             -7.3618
 ZZZY=            -14.8432 XXYY=           -748.4538 XXZZ=           -774.6531 YYZZ=           -147.6084
 XXYZ=            -64.0006 YYXZ=            -25.0968 ZZXY=             -4.6620
 N-N= 8.186583499428D+02 E-N=-3.850538501619D+03  KE= 9.369436391991D+02
 No NMR shielding tensors so no spin-rotation constants.
 Leave Link  601 at Tue Dec 13 10:24:37 2022, MaxMem=  4294967296 cpu:               4.1 elap:               0.3
 (Enter /n/sw/g16_nehalem/g16/l701.exe)
 ... and contract with generalized density number  0.
 Compute integral first derivatives.
 R6Disp: Adding Grimme-D2 dispersion energy 1st derivatives to the gradient.
 D1PCM: PCM CHGder 1st derivatives, ID1Alg=3 FixD1E=F DoIter=F DoCFld=F I1PDM=0.
 GePol: Maximum number of non-zero 1st derivatives   =     298
 Leave Link  701 at Tue Dec 13 10:24:38 2022, MaxMem=  4294967296 cpu:              16.7 elap:               1.1
 (Enter /n/sw/g16_nehalem/g16/l702.exe)
 L702 exits ... SP integral derivatives will be done elsewhere.
 Leave Link  702 at Tue Dec 13 10:24:38 2022, MaxMem=  4294967296 cpu:               1.1 elap:               0.1
 (Enter /n/sw/g16_nehalem/g16/l703.exe)
 Integral derivatives from FoFJK, PRISM(SPDF).
 Compute integral first derivatives, UseDBF=F ICtDFT=           0.
 Calling FoFJK, ICntrl=      2127 FMM=F ISym2X=0 I1Cent= 0 IOpClX= 0 NMat=1 NMatS=1 NMatT=0.
 FoFJK:  IHMeth= 1 ICntrl=    2127 DoSepK=T KAlg= 0 I1Cent=           0 FoldK=F
 IRaf=         1 NMat=       1 IRICut=       1 DoRegI=T DoRafI=F ISym2E= 0 IDoP0=0 IntGTp=1.
 FoFCou: FMM=F IPFlag=           0 FMFlag=      100000 FMFlg1=         800
         NFxFlg=           0 DoJE=F BraDBF=F KetDBF=F FulRan=T
         wScrn=  0.000000 ICntrl=      2527 IOpCl=  0 I1Cent=           0 NGrid=           0
         NMat0=    1 NMatS0=      1 NMatT0=    0 NMatD0=    1 NMtDS0=    0 NMtDT0=    0
 Symmetry not used in FoFCou.
 Leave Link  703 at Tue Dec 13 10:24:43 2022, MaxMem=  4294967296 cpu:              69.8 elap:               4.4
 (Enter /n/sw/g16_nehalem/g16/l716.exe)
 Dipole        = 1.97693334D+00 1.24698814D+00 7.28497959D-01
 ***** Axes restored to original set *****
 -------------------------------------------------------------------
 Center     Atomic                   Forces (Hartrees/Bohr)
 Number     Number              X              Y              Z
 -------------------------------------------------------------------
      1        6          -0.018887138   -0.009262492   -0.011115430
      2        6           0.044196637    0.015183043   -0.014974237
      3        6          -0.076341448   -0.048769610   -0.033467834
      4        6           0.082652710    0.028251966    0.027898450
      5        6          -0.081424977    0.013996802    0.087779128
[...]
 0013470,0.00004773,0.00011317,-0.00000740,0.00007546,-0.00001165,0.000
 00120,0.00000422,-0.00001431,0.00001163,-0.00000622,-0.00000106,-0.084
 97906,0.13877107,-0.37860186,0.08744542,-0.14219813,0.39232810,0.00018
 789,-0.00137004,-0.00097671,-0.00128848,0.00044827,0.00080791,0.000552
 99,0.00019959,-0.00046219,-0.00023858,0.00026078,0.00000817,-0.0384656
 8,-0.01999833,-0.00256100,0.00332533,0.00025240,-0.00013187,0.00108365
 ,0.00109910,-0.00015332,0.00004418,-0.00007893,-0.00003495,-0.00011459
 ,-0.00001212,0.00021350,-0.00012742,0.00032155,0.00012462,0.00002682,-
 0.00004329,0.00006606,-0.00005936,-0.00002244,0.00010336,0.00116917,0.
 00014289,0.00055884,-0.00015237,0.00003866,0.00013015,0.00084092,0.001
 18640,-0.00004107,-0.00027513,0.00011221,0.00024355,-0.00002470,0.0001
 3940,-0.00000750,0.00002564,-0.00001563,-0.00001193,-0.00000761,-0.000
 06245,-0.00001799,-0.11886961,-0.07593636,0.00749166,0.00918542,0.0079
 5492,0.00008255,0.61989301,0.00048613,-0.00046256,-0.00126270,-0.00131
 542,0.00017293,0.00110471,0.00077313,0.00023937,-0.00067755,-0.0002992
 6,0.00030617,0.00012414,-0.03903512,-0.01458867,-0.02098378,0.00092933
 ,0.00001155,0.00165654,0.00191984,-0.00024303,-0.00049143,0.00007819,0
 .00007267,-0.00008490,-0.00013563,-0.00006013,0.00021795,-0.00025715,0
 .00058386,0.00030349,0.00004387,-0.00003448,-0.00000598,-0.00009902,0.
 00002852,0.00013314,0.00343743,-0.00025338,0.00150253,-0.00015847,0.00
 000345,0.00001592,0.00064538,0.00138429,-0.00008642,-0.00039483,0.0001
 6661,0.00033369,-0.00005320,0.00021791,-0.00001038,0.00002802,-0.00001
 856,-0.00001803,0.00000536,-0.00007261,-0.00002777,-0.08442873,-0.2079
 1298,0.08973388,-0.00211188,-0.01139427,0.00359841,0.23667337,0.524804
 46,-0.00021976,0.00034041,0.00056129,0.00019033,-0.00008159,-0.0003520
 1,-0.00009968,0.00001005,0.00016526,-0.00000981,-0.00011602,-0.0000897
 7,0.00828924,-0.02096414,0.01133728,-0.00584421,-0.00009165,-0.0029970
 0,0.00002059,-0.00028785,0.00031327,0.00000481,0.00008103,-0.00002519,
 0.00003765,-0.00001475,-0.00021991,0.00015157,-0.00011710,-0.00012686,
 0.00006135,0.00002186,0.00004136,0.00002473,0.00001951,-0.00002345,-0.
 00072752,-0.00111059,-0.00093896,0.00014438,0.00009279,0.00028827,-0.0
 0047334,-0.00201195,0.00058541,0.00006515,-0.00002675,-0.00004838,0.00
 001426,-0.00002779,0.00000259,-0.00000176,0.00002222,-0.00001707,-0.00
 000403,0.00002116,0.00001074,-0.00098188,0.07851998,-0.15080347,0.0198
 5024,0.03329660,-0.00629544,0.29268335,-0.01705506,0.69696761,-0.00029
 383,0.00058702,0.00059442,0.00055809,-0.00029027,-0.00044022,-0.000242
 00,-0.00005712,0.00029667,0.00016594,-0.00015435,0.00000678,0.01888936
 ,-0.00382015,0.00678310,-0.00355017,0.00057719,-0.00171993,-0.00063018
 ,-0.00036938,-0.00002062,-0.00003584,-0.00000627,0.00005720,0.00010290
 ,0.00002514,-0.00010794,0.00020440,-0.00025314,-0.00011328,-0.00002731
 ,0.00002157,-0.00005367,0.00002327,0.00001108,-0.00006922,-0.00098991,
 0.00018922,-0.00020281,0.00012526,-0.00000118,0.00007380,-0.00035932,-
 0.00143551,0.00022974,0.00013629,-0.00006136,-0.00013384,0.00001560,-0
 .00007166,0.00000200,-0.00001684,0.00000544,0.00001022,0.00001435,0.00
 004447,0.00001206,-0.04736585,-0.06538795,-0.02776978,-0.00284730,0.00
 396107,0.00012526,-0.38855203,-0.14679175,-0.28824088,0.43233683,-0.00
 029748,0.00008902,0.00049996,0.00022018,0.00000709,-0.00036205,-0.0001
 8586,0.00002240,0.00020375,0.00008387,-0.00010594,-0.00005316,0.010047
 11,-0.00055318,0.00937552,-0.00189343,0.00040575,-0.00138958,-0.000323
 56,0.00014735,0.00027040,-0.00000994,0.00003823,0.00000494,0.00006058,
 0.00002626,-0.00009800,0.00016419,-0.00023405,-0.00013480,-0.00000808,
 0.00001412,0.00001722,0.00003200,-0.00001127,-0.00004541,-0.00101192,0
 .00007571,-0.00036973,0.00014058,0.00002919,0.00006859,-0.00022228,-0.
 00101680,0.00011268,0.00010070,-0.00004197,-0.00008843,0.00002018,-0.0
 0006079,0.00000054,-0.00000781,0.00000884,0.00000441,-0.00000044,0.000
 02486,0.00000983,-0.07025694,-0.04056248,-0.03603913,0.00277531,0.0025
 3108,-0.00293465,-0.15591674,-0.16331802,-0.12734829,0.21814812,0.1798
 9766,-0.00009498,0.00018606,0.00021238,0.00028906,-0.00005011,-0.00027
 057,-0.00011574,-0.00004818,0.00012521,0.00008471,-0.00002998,0.000027
 75,0.00575540,0.00447515,0.00558614,-0.00026386,0.00023209,-0.00019312
 ,-0.00032843,-0.00008004,-0.00002120,-0.00002472,-0.00003771,0.0000632
 9,0.00004464,0.00002610,0.00000895,0.00006859,-0.00012325,-0.00004135,
 -0.00003559,0.00000644,-0.00002504,0.00000611,-0.00001111,-0.00003284,
 -0.00016093,0.00052268,0.00036117,-0.00000820,-0.00006649,-0.00001532,
 -0.00008131,-0.00024571,-0.00004123,0.00006182,-0.00002777,-0.00006799
 ,0.00000552,-0.00003945,0.00000271,-0.00000587,-0.00001074,0.00001799,
 0.00000550,0.00001313,0.00000156,-0.01547963,-0.02650850,0.02147219,-0
 .00125013,-0.00396269,0.00023993,-0.27840448,-0.11369407,-0.35615980,0
 .33833790,0.14686504,0.36397822,-0.00001624,0.00010868,-0.00000307,0.0
 0004325,-0.00006562,-0.00003309,-0.00002460,0.00000021,0.00001047,0.00
 001187,-0.00003092,0.00000448,-0.00017103,-0.00108988,0.00101727,-0.00
 038300,-0.00000209,0.00038865,-0.00000417,-0.00005047,0.00003817,0.000
 00396,0.00002609,-0.00000871,0.00000332,-0.00001195,-0.00001219,0.0000
 0676,-0.00000823,0.00000565,0.00000631,-0.00000238,-0.00000810,0.00000
 231,0.00000910,-0.00000620,-0.00027945,-0.00080253,0.00085230,-0.00002
 753,-0.00013428,-0.00008513,-0.00002739,-0.00007594,-0.00005225,0.0000
 1003,-0.00000461,-0.00000881,0.00000014,-0.00000290,-0.00000006,-0.000
 00144,0.00000303,-0.00000104,0.00000239,0.00000595,0.00000047,0.011873
 40,-0.00894961,0.01433425,0.00024818,-0.00520852,-0.00064877,-0.095245
 83,0.00702108,-0.01099323,-0.00023392,0.00108841,-0.04183485,0.5843998
 7,-0.00008413,0.00002215,0.00005321,-0.00002691,-0.00002773,-0.0000034
 8,-0.00001207,0.00002767,0.00002406,0.00000839,-0.00001960,-0.00001518
 ,0.00074779,-0.00221457,0.00129813,0.00021924,0.00003672,0.00047070,-0
 .00008060,0.00008822,-0.00000557,-0.00000505,0.00000908,-0.00001605,0.
 00001796,0.00000179,-0.00002171,0.00003256,-0.00003936,-0.00002795,0.0
 0000298,0.00000785,0.00000475,0.00000568,0.00000032,-0.00000629,-0.001
 22926,-0.00160306,0.00185104,-0.00003207,-0.00020089,-0.00012803,-0.00
 001183,0.00000979,-0.00007210,0.00001047,-0.00000460,-0.00000846,0.000
 00375,-0.00000619,-0.00000058,-0.00000208,0.00000232,-0.00000115,0.000
 00025,0.00000484,0.00000276,0.00068205,-0.01151463,0.03190577,-0.00426
 720,-0.00227037,0.00102832,0.01018418,-0.12135007,0.04990121,-0.010455
 06,0.01947926,-0.00840838,0.03919067,0.58446743,0.00003244,-0.00008649
 ,-0.00006041,-0.00005059,0.00002444,0.00007724,0.00004087,-0.00000667,
 -0.00002985,-0.00001599,0.00001534,0.00002002,-0.00199628,0.00086606,-
 0.00190010,0.00034377,-0.00012993,-0.00022220,0.00007648,0.00002955,-0
 .00002894,-0.00000304,-0.00002007,0.00000718,-0.00001667,0.00000281,0.
 00000471,-0.00001179,0.00004336,0.00000794,0.00000777,-0.00000037,-0.0
 0000926,-0.00000912,0.00000661,0.00000557,-0.00023791,0.00092733,-0.00
 049967,-0.00001573,0.00005829,-0.00001712,0.00007925,0.00012302,-0.000
 00853,-0.00002128,0.00000871,0.00001638,-0.00000498,0.00001364,-0.0000
 0026,0.00000131,-0.00000222,0.00000037,0.00000288,-0.00000331,-0.00000
 259,0.00001938,0.01349993,-0.00499667,-0.00134064,0.00028165,0.0022571
 4,-0.01269571,0.04793778,-0.17432947,-0.02704599,0.00860968,-0.0277397
 2,-0.00666267,0.02493630,0.50878645,0.00002709,-0.00001217,0.00001281,
 0.00002873,0.00005790,0.00000468,-0.00000138,-0.00001825,-0.00000931,0
 .00000014,0.00003104,-0.00000478,-0.00008283,0.00025273,0.00077872,0.0
 0003681,-0.00004389,-0.00015202,-0.00001047,-0.00003672,-0.00000572,-0
 .00000988,-0.00001376,0.00000453,0.00000739,-0.00000003,-0.00000579,-0
 .00001597,0.00000596,-0.00000282,-0.00000504,-0.00001174,0.00000558,0.
 00000082,-0.00001238,0.00000521,-0.00034436,-0.00049984,0.00013066,-0.
 00000120,0.00006847,-0.00002184,-0.00000404,0.00001971,0.00000888,-0.0
 0000162,0.00000237,0.00000120,0.00000045,-0.00000298,0.00000027,0.0000
 0060,-0.00000391,0.00000231,-0.00000431,-0.00000668,0.00000033,-0.0001
 4323,-0.00042770,0.00059322,-0.00005991,-0.00005655,0.00000683,-0.0002
 8267,-0.00666452,-0.00717215,-0.00170219,0.00229797,-0.00153765,-0.052
 91985,0.03076558,0.04001922,0.05500985,-0.00001196,0.00005913,0.000041
 98,-0.00000964,-0.00004205,-0.00003435,0.00000685,0.00000640,-0.000006
 36,-0.00001172,-0.00000622,-0.00000178,-0.00015322,-0.00050791,0.00090
 684,-0.00014270,0.00008305,0.00015757,0.00001093,0.00003867,0.00000846
 ,0.00000053,0.00001898,-0.00000949,0.00000174,-0.00000288,-0.00004198,
 0.00001118,-0.00000119,-0.00001639,0.00000488,0.00001344,-0.00000227,-
 0.00000093,0.00000663,-0.00000229,-0.00053962,-0.00064614,0.00061302,0
 .00000779,-0.00004323,0.00001828,-0.00001264,-0.00003273,0.00000607,-0
 .00000191,-0.00000094,0.00000320,-0.00000024,0.00000257,0.00000008,0.0
 0000001,0.00000101,-0.00000080,0.00000076,0.00000108,0.00000008,-0.000
 14912,-0.00186167,-0.00049635,0.00050019,-0.00014747,-0.00036913,-0.00
 646222,0.01336187,0.01069690,0.00281933,-0.00120741,0.00094564,0.03165
 313,-0.15878731,-0.12874022,-0.03475669,0.16864444,-0.00000453,-0.0000
 2123,-0.00006070,-0.00002647,0.00005128,0.00003062,0.00001086,0.000008
 84,-0.00000063,0.00001188,0.00002689,-0.00000442,-0.00023716,-0.000202
 27,-0.00036022,0.00015696,0.00001036,0.00025906,-0.00002633,0.00003685
 ,-0.00007249,-0.00000542,-0.00003191,0.00001391,0.00001686,0.00001282,
 0.00003884,-0.00000717,-0.00001287,0.00001535,-0.00001980,-0.00000433,
 0.00000415,-0.00000073,-0.00001371,0.00000176,0.00064564,0.00062408,0.
 00014580,-0.00002636,-0.00010350,0.00001500,0.00001199,0.00004904,-0.0
 0001019,-0.00000302,0.00000159,0.00000034,0.00000102,-0.00000287,-0.00
 000040,0.00000009,-0.00000408,0.00000328,-0.00000153,-0.00000297,0.000
 00007,-0.00077920,0.00214281,0.00076425,-0.00055397,0.00028618,0.00027
 537,0.00640704,-0.02358203,-0.01870802,-0.00311447,0.00432924,-0.00296
 524,0.04135973,-0.13061764,-0.20415699,-0.04189429,0.14129530,0.217791
 50,0.00000092,0.00001490,0.00000756,-0.00000004,-0.00001658,-0.0000040
 9,-0.00000137,-0.00000173,0.00000518,0.00000093,-0.00000876,0.00000075
 ,0.00039817,-0.00078680,-0.00022306,0.00002093,0.00005852,0.00019164,-
 0.00000189,-0.00000105,0.00000203,0.00000071,0.00000296,-0.00000195,-0
 .00000452,0.00000290,-0.00000367,0.00000201,0.00000243,-0.00000194,0.0
 0000220,0.00000153,-0.00000166,-0.00000042,0.00000388,-0.00000088,-0.0
 0009159,-0.00034730,0.00040004,0.00000270,-0.00007030,-0.00000117,-0.0
 0001220,0.00001638,-0.00000396,0.00000141,-0.00000101,-0.00000128,-0.0
 0000042,0.00000089,0.00000020,-0.00000037,0.00000124,-0.00000109,0.000
 00136,0.00000191,0.00000023,-0.00000669,-0.00034207,-0.00018013,0.0000
 1578,0.00009630,-0.00008887,-0.00494416,-0.00083254,-0.00069561,0.0005
 1830,0.00147883,-0.00131567,-0.30380521,0.07039217,-0.01025312,-0.0040
 3813,0.00022992,-0.00054486,0.32629762,0.00004259,0.00002047,-0.000021
 71,0.00000645,0.00003867,0.00000884,-0.00000728,-0.00001107,-0.0000092
 3,-0.00000386,0.00001010,-0.00000243,0.00116846,-0.00103178,0.00064531
 ,-0.00007403,-0.00008571,-0.00018945,-0.00001718,0.00001053,-0.0000046
 5,-0.00000292,-0.00000357,-0.00000212,0.00000070,-0.00000114,0.0000037
 7,-0.00002520,0.00001836,0.00000786,-0.00000500,0.00000031,0.00000277,
 0.00000052,-0.00000301,0.00000379,-0.00009430,-0.00132338,-0.00012540,
 0.00001837,0.00011267,-0.00002059,-0.00000260,-0.00000585,-0.00000029,
 0.00000119,0.00000023,0.00000156,-0.00000066,-0.00000038,0.00000047,0.
 00000030,-0.00000051,-0.00000042,-0.00000202,-0.00000272,-0.00000013,-
 0.00155337,-0.00097221,0.00100061,-0.00036882,0.00036963,0.00019377,0.
 01385915,-0.00345042,-0.00424627,-0.00023046,0.00034714,0.00156822,0.0
 6973005,-0.06740987,0.00675856,0.01971826,-0.00520865,0.00209164,-0.07
 586461,0.06840516,-0.00001481,-0.00002793,0.00002057,-0.00000390,-0.00
 000610,0.00000003,0.00000939,0.00000482,-0.00000504,0.00000086,0.00000
 870,-0.00000154,-0.00078758,0.00110723,0.00015861,0.00008777,-0.000004
 31,-0.00003677,0.00001216,-0.00000015,-0.00001730,-0.00000254,-0.00000
 206,0.00000072,0.00000839,0.00000488,-0.00000366,0.00000789,-0.0000084
 9,-0.00000258,-0.00000416,0.00000023,0.00000014,-0.00000022,-0.0000032
 7,0.00000096,0.00030774,0.00017738,-0.00012651,-0.00001789,-0.00001193
 ,-0.00001521,0.00000356,0.00001873,0.00001086,-0.00000330,0.00000126,0
 .00000261,0.00000046,0.00000057,-0.00000011,-0.00000016,-0.00000129,0.
 00000030,-0.00000068,-0.00000129,0.00000067,0.00217691,0.00019049,-0.0
 0014629,0.00042595,-0.00059603,-0.00033637,-0.03312225,0.00505739,0.00
 366812,0.00123848,0.00026632,-0.00741043,-0.01225420,0.00732784,-0.045
 71606,0.02499957,-0.00572075,0.00252981,0.01310392,-0.00599095,0.04840
 834,-0.00002048,-0.00000810,0.00002403,0.00000458,-0.00000763,-0.00001
 421,0.00000169,0.00000348,0.00000530,0.00000005,0.00000021,-0.00000165
 ,-0.00029999,0.00007306,-0.00049452,0.00005116,0.00007814,0.00011039,0
 .00000160,-0.00001031,-0.00000044,-0.00000044,0.00000074,0.00000231,0.
 00000030,0.00000433,-0.00000466,0.00000980,-0.00001127,-0.00000677,0.0
 0000169,-0.00000007,0.00000120,0.00000090,-0.00000170,-0.00000149,-0.0
 0020485,-0.00005799,0.00039989,0.,-0.00006380,0.00000613,-0.00000564,0
 .00000533,-0.00000087,0.00000059,-0.00000035,-0.00000145,0.00000100,-0
 .00000172,-0.00000012,0.00000011,-0.00000067,0.00000105,-0.00000047,-0
 .00000013,0.00000014,0.00027793,0.00029627,-0.00189644,0.00053959,0.00
 010918,-0.00021854,0.00295865,0.00840259,-0.00183811,0.00049900,0.0008
 2096,0.00044047,-0.14362832,-0.13562221,0.01839383,0.00452634,0.007135
 13,-0.00154605,-0.01398096,-0.02575894,0.00327741,0.14920201,-0.000021
 16,0.00002782,-0.00000284,0.00002095,0.00000163,-0.00001377,-0.0000195
 9,0.00000478,0.00001706,0.00001294,-0.00001133,-0.00000094,0.00104227,
 0.00024720,0.00019090,-0.00009119,0.00000434,0.00005706,-0.00003773,0.
 00000475,0.00000223,-0.00000015,-0.00000164,0.00000199,0.00000887,0.00
 000656,0.00000514,0.00000642,-0.00001680,0.00000066,-0.00000707,0.0000
 0143,-0.00000132,0.00000265,-0.00000093,-0.00000419,0.00017397,0.00012
 582,0.00009089,-0.00000473,-0.00003163,-0.00001987,-0.00001050,-0.0000
 4211,-0.00001251,0.00000946,-0.00000325,-0.00000844,0.00000148,-0.0000
 0519,-0.00000032,-0.00000112,0.00000124,0.00000016,0.00000071,0.000003
 33,0.00000072,0.00044685,-0.00047011,0.00317363,-0.00062788,-0.0003616
 0,0.00012885,-0.00957348,-0.01320824,-0.00179871,0.00094975,0.00235499
 ,-0.00196604,-0.13219443,-0.23909503,0.02551411,-0.01056860,-0.0138755
 8,0.00365444,0.00603293,0.01012456,-0.00139923,0.14471066,0.25410131,0
 .00000303,-0.00000843,-0.00005086,-0.00003127,0.00001330,0.00001477,0.
 00001549,0.00000725,-0.00000608,-0.00000044,0.00000723,0.00000391,-0.0
 0132050,-0.00097176,-0.00074310,0.00010612,0.00002589,0.00021726,0.000
 02558,0.00001187,-0.00002311,0.00000222,-0.00001052,0.00000784,0.00000
 097,0.00000727,0.00002009,-0.00000392,0.00000388,0.00001238,-0.0000054
 5,-0.00000173,-0.00000003,-0.00000227,-0.00000215,0.00000164,0.0001214
 6,0.00001647,0.00037723,-0.00000827,-0.00006609,0.00005188,0.00001771,
 0.00005022,0.00000905,-0.00000674,0.00000265,0.00000452,-0.00000058,0.
 00000286,-0.00000027,0.00000056,-0.00000098,0.00000046,0.00000057,-0.0
 0000058,-0.00000070,-0.00247147,0.00232482,-0.00610413,0.00069134,0.00
 139041,0.00003425,0.02078734,0.02771028,-0.00348185,0.00034534,-0.0023
 2343,0.00277529,0.01435033,0.02022455,-0.05119052,-0.01570247,-0.01906
 839,0.00440614,-0.00049465,-0.00164351,-0.00082998,-0.01666698,-0.0276
 6487,0.05452818,0.00369044,0.00278484,-0.00237523,-0.00056151,-0.00001
 877,0.00042067,0.00019940,-0.00005836,-0.00033614,-0.00010730,0.000112
 21,0.00007349,-0.01563494,0.01432937,0.02290097,-0.01454202,0.00948332
 ,0.00949581,0.00040718,0.00017555,-0.00017494,-0.00003789,-0.00003598,
 -0.00006891,0.00016994,-0.00030530,-0.00014524,-0.00120309,0.00101062,
 0.00060723,0.00001504,-0.00000701,-0.00002921,-0.00004165,0.00002712,0
 .00006620,-0.01689674,0.01252089,0.00550233,0.00002563,-0.00102696,-0.
 00084310,0.00097860,0.00007888,0.00025225,-0.00010560,0.00004436,0.000
 12310,-0.00002480,0.00008488,-0.00000222,-0.00000662,-0.00000226,-0.00
 001691,0.00000163,-0.00003363,-0.00000778,-0.06443312,-0.01455080,-0.0
 0375752,-0.00027352,-0.00072469,0.00154255,0.00935455,0.02213381,-0.00
 423567,-0.00674290,-0.00734452,-0.00415768,0.00015618,-0.00043525,0.00
 136428,-0.00001113,-0.00012979,0.00016929,-0.00037509,-0.00053481,0.00
 055120,0.00006417,-0.00026229,0.00024694,0.10593515,-0.00274352,-0.004
 24834,0.00388360,0.00025604,-0.00066593,-0.00067521,0.00014580,0.00033
 412,0.00045737,0.00016085,-0.00019751,-0.00009177,-0.00342754,-0.03916
 018,-0.01004702,0.02844105,-0.01764655,-0.01632606,0.00000124,-0.00000
 230,0.00006929,0.00002921,0.00000677,0.00009005,-0.00016181,0.00026252
 ,-0.00002823,0.00141335,-0.00137488,-0.00081713,0.00001426,0.00002287,
 0.00002444,0.00001845,-0.00001229,-0.00011478,0.00503681,-0.00211084,-
 0.00105803,0.00003696,0.00103869,0.00039755,0.00245428,-0.00073575,-0.
 00024695,0.00005260,-0.00001603,-0.00011093,0.00003088,-0.00005937,-0.
 00000134,0.00000349,0.00000194,0.00001749,0.00001590,0.00006131,0.0000
 1422,0.00699759,0.01400066,0.00613970,0.00031995,0.00018939,-0.0002791
 6,-0.00338085,-0.00498626,0.00227479,0.00204619,0.00161295,0.00046967,
 -0.00020204,0.00038587,-0.00066788,-0.00008359,0.00013412,-0.00002195,
 -0.00006492,0.00005243,-0.00039208,-0.00009520,0.00011367,-0.00003651,
 -0.03731544,0.05299893,-0.00041260,-0.00049325,0.00136117,0.00014181,-
 0.00018556,-0.00021045,0.00002358,0.00007685,0.00010884,0.00004575,-0.
 00004219,-0.00001279,0.00549274,-0.00614126,-0.04505393,0.00192176,-0.
 00148630,-0.00001515,-0.00008454,0.00000048,-0.00002587,0.00000692,-0.
 00001307,0.00003458,-0.00023920,0.00026735,0.00029762,0.00029870,-0.00
 029720,0.00006192,-0.00001251,0.00000033,0.00000285,0.00000643,-0.0000
 0937,-0.00002798,0.02301296,-0.01443524,-0.00366787,-0.00051089,-0.000
 02770,0.00082374,0.00050302,-0.00045623,0.00000055,0.00001792,-0.00000
 903,-0.00003353,0.00000675,-0.00002071,-0.00000014,0.00000253,-0.00000
 297,0.00000931,0.00000358,0.00001019,0.00000002,-0.00311965,0.00638988
 ,0.01080025,-0.00009359,0.00055305,0.00006718,-0.00108714,-0.00144973,
 0.00067546,0.00091968,0.00054856,0.00011110,0.00025059,0.00030394,-0.0
 0027466,-0.00006516,-0.00018290,0.00004405,0.00010611,-0.00003001,-0.0
 0015388,0.00003017,0.00005519,-0.00003426,-0.02716573,0.01707688,0.035
 11189\\-0.00002046,0.00000216,0.00000542,0.00000504,0.00000048,-0.0000
 0060,0.00000653,-0.00000271,-0.00000104,-0.00000224,-0.00000040,-0.000
 00657,-0.00001152,-0.00001011,-0.00002041,0.00002653,-0.00001137,0.000
 00171,-0.00000076,-0.00000215,-0.00000453,0.00000574,-0.00000170,-0.00
 000140,-0.00000524,-0.00000084,0.00000391,0.00000009,0.00000289,0.0000
 0444,-0.00000757,-0.00000417,-0.00000536,-0.00000993,-0.00000579,-0.00
 000597,-0.00000226,0.00000750,0.00000892,0.00000080,0.00000744,0.00001
 135,-0.00000430,-0.00000245,0.00001166,-0.00000331,0.00000822,-0.00000
 365,-0.00000405,-0.00000520,-0.00000409,0.00000099,-0.00000033,0.00000
 109,-0.00000365,-0.00000419,0.00000157,0.00002274,0.00000621,0.0000086
 8,0.00000574,0.00000179,-0.00000174,0.00000267,-0.00000126,0.00000013,
 0.00000968,0.00000075,-0.00000475,-0.00001197,0.00000507,0.00000269,0.
 00000281,-0.00000371,-0.00000467,0.00000400,0.00000082,-0.00000049,0.0
 0000321,-0.00000024,-0.00000745,-0.00000931,0.00001330,0.00001114\\\@


 THE FIRST AND LAST THING REQUIRED OF GENIUS IS THE LOVE OF TRUTH.

                          -- GOETHE
 Job cpu time:       0 days  0 hours 47 minutes 54.7 seconds.
 Elapsed time:       0 days  0 hours  3 minutes  1.8 seconds.
 File lengths (MBytes):  RWF=    247 Int=      0 D2E=      0 Chk=     13 Scr=      1
 Normal termination of Gaussian 16 at Tue Dec 13 10:46:38 2022.
