 Entering Gaussian System, Link 0=g16
 Input=HCN-b3lyp-631gd-gas-tight.gjf
 Output=HCN-b3lyp-631gd-gas-tight.out
 Initial command:
 /n/sw/g16_nehalem/g16/l1.exe "/scratch/Gau-18206.inp" -scrdir="/scratch/"
 Entering Link 1 = /n/sw/g16_nehalem/g16/l1.exe PID=     18207.
  
 Copyright (c) 1988,1990,1992,1993,1995,1998,2003,2009,2016,
            Gaussian, Inc.  All Rights Reserved.
  
 This is part of the Gaussian(R) 16 program.  It is based on
 the Gaussian(R) 09 system (copyright 2009, Gaussian, Inc.),
 the Gaussian(R) 03 system (copyright 2003, Gaussian, Inc.),
 the Gaussian(R) 98 system (copyright 1998, Gaussian, Inc.),
 the Gaussian(R) 94 system (copyright 1995, Gaussian, Inc.),
 the Gaussian 92(TM) system (copyright 1992, Gaussian, Inc.),
 the Gaussian 90(TM) system (copyright 1990, Gaussian, Inc.),
 the Gaussian 88(TM) system (copyright 1988, Gaussian, Inc.),
 the Gaussian 86(TM) system (copyright 1986, Carnegie Mellon
 University), and the Gaussian 82(TM) system (copyright 1983,
 Carnegie Mellon University). Gaussian is a federally registered
 trademark of Gaussian, Inc.
  
 This software contains proprietary and confidential information,
 including trade secrets, belonging to Gaussian, Inc.
  
 This software is provided under written license and may be
 used, copied, transmitted, or stored only in accord with that
 written license.
  
 The following legend is applicable only to US Government
 contracts under FAR:
  
                    RESTRICTED RIGHTS LEGEND
  
 Use, reproduction and disclosure by the US Government is
 subject to restrictions as set forth in subparagraphs (a)
 and (c) of the Commercial Computer Software - Restricted
 Rights clause in FAR 52.227-19.
  
 Gaussian, Inc.
 340 Quinnipiac St., Bldg. 40, Wallingford CT 06492
  
  
 ---------------------------------------------------------------
 Warning -- This program may not be used in any manner that
 competes with the business of Gaussian, Inc. or will provide
 assistance to any competitor of Gaussian, Inc.  The licensee
 of this program is prohibited from giving any competitor of
 Gaussian, Inc. access to this program.  By using this program,
 the user acknowledges that Gaussian, Inc. is engaged in the
 business of creating and licensing software in the field of
 computational chemistry and represents and warrants to the
 licensee that it is not a competitor of Gaussian, Inc. and that
 it will not use this program in any manner prohibited above.
 ---------------------------------------------------------------
  

 Cite this work as:
 Gaussian 16, Revision A.03,
 M. J. Frisch, G. W. Trucks, H. B. Schlegel, G. E. Scuseria, 
 M. A. Robb, J. R. Cheeseman, G. Scalmani, V. Barone, 
 G. A. Petersson, H. Nakatsuji, X. Li, M. Caricato, A. V. Marenich, 
 J. Bloino, B. G. Janesko, R. Gomperts, B. Mennucci, H. P. Hratchian, 
 J. V. Ortiz, A. F. Izmaylov, J. L. Sonnenberg, D. Williams-Young, 
 F. Ding, F. Lipparini, F. Egidi, J. Goings, B. Peng, A. Petrone, 
 T. Henderson, D. Ranasinghe, V. G. Zakrzewski, J. Gao, N. Rega, 
 G. Zheng, W. Liang, M. Hada, M. Ehara, K. Toyota, R. Fukuda, 
 J. Hasegawa, M. Ishida, T. Nakajima, Y. Honda, O. Kitao, H. Nakai, 
 T. Vreven, K. Throssell, J. A. Montgomery, Jr., J. E. Peralta, 
 F. Ogliaro, M. J. Bearpark, J. J. Heyd, E. N. Brothers, K. N. Kudin, 
 V. N. Staroverov, T. A. Keith, R. Kobayashi, J. Normand, 
 K. Raghavachari, A. P. Rendell, J. C. Burant, S. S. Iyengar, 
 J. Tomasi, M. Cossi, J. M. Millam, M. Klene, C. Adamo, R. Cammi, 
 J. W. Ochterski, R. L. Martin, K. Morokuma, O. Farkas, 
 J. B. Foresman, and D. J. Fox, Gaussian, Inc., Wallingford CT, 2016.
 
 ******************************************
 Gaussian 16:  ES64L-G16RevA.03 25-Dec-2016
                14-Oct-2017 
 ******************************************
 %mem=20GB
 %nprocshared=8
 Will use up to    8 processors via shared memory.
 --------------------------------------------------------------------
 #p opt=verytight int=superfinegrid freq=noraman pop=cm5 b3lyp 6-31g*
 --------------------------------------------------------------------
 1/7=1,18=20,19=15,26=5,38=1/1,3;
 2/9=110,12=2,17=6,18=5,40=1/2;
 3/5=1,6=6,7=1,11=2,25=1,30=1,71=1,74=-5,75=-7/1,2,3;
 4//1;
 5/5=2,38=5/2;
 6/7=2,8=2,9=2,10=2,28=1,79=1/1;
 7//1,2,3,16;
 1/7=1,18=20,19=15,26=5/3(2);
 2/9=110/2;
 99//99;
 2/9=110/2;
 3/5=1,6=6,7=1,11=2,25=1,30=1,71=1,74=-5,75=-7/1,2,3;
 4/5=5,16=3,69=1/1;
 5/5=2,38=5/2;
 7//1,2,3,16;
 1/7=1,18=20,19=15,26=5/3(-5);
 2/9=110/2;
 6/7=2,8=2,9=2,10=2,19=2,28=1,79=1/1;
 99/9=1/99;
 Leave Link    1 at Sat Oct 14 11:59:19 2017, MaxMem=  2684354560 cpu:               0.3 elap:               0.0
 (Enter /n/sw/g16_nehalem/g16/l101.exe)
 -----
 title
 -----
 Symbolic Z-matrix:
 Charge =  0 Multiplicity = 1
 N                     0.        0.        0.65504 
 C                     0.        0.       -0.50196 
 H                     0.        0.       -1.57351 
 
 ITRead=  0  0  0
 MicOpt= -1 -1 -1
 NAtoms=      3 NQM=        3 NQMF=       0 NMMI=      0 NMMIF=      0
                NMic=       0 NMicF=      0.
                    Isotopes and Nuclear Properties:
 (Nuclear quadrupole moments (NQMom) in fm**2, nuclear magnetic moments (NMagM)
  in nuclear magnetons)

  Atom         1           2           3
 IAtWgt=          14          12           1
 AtmWgt=  14.0030740  12.0000000   1.0078250
 NucSpn=           2           0           1
 AtZEff=   0.0000000   0.0000000   0.0000000
 NQMom=    2.0440000   0.0000000   0.0000000
 NMagM=    0.4037610   0.0000000   2.7928460
 AtZNuc=   7.0000000   6.0000000   1.0000000
 Leave Link  101 at Sat Oct 14 11:59:19 2017, MaxMem=  2684354560 cpu:               5.1 elap:               0.6
 (Enter /n/sw/g16_nehalem/g16/l103.exe)

 GradGradGradGradGradGradGradGradGradGradGradGradGradGradGradGradGradGrad
 Berny optimization.
 Initialization pass.
                           ----------------------------
                           !    Initial Parameters    !
                           ! (Angstroms and Degrees)  !
 --------------------------                            --------------------------
 ! Name  Definition              Value          Derivative Info.                !
 --------------------------------------------------------------------------------
 ! R1    R(1,2)                  1.157          estimate D2E/DX2                !
 ! R2    R(2,3)                  1.0715         estimate D2E/DX2                !
 ! A1    L(1,2,3,-1,-1)        180.0            estimate D2E/DX2                !
 ! A2    L(1,2,3,-2,-2)        180.0            estimate D2E/DX2                !
 --------------------------------------------------------------------------------
 Trust Radius=3.00D-01 FncErr=1.00D-07 GrdErr=1.00D-07 EigMax=2.50D+02 EigMin=1.00D-04
 Number of steps in this run=     20 maximum allowed number of steps=    100.
 GradGradGradGradGradGradGradGradGradGradGradGradGradGradGradGradGradGrad

 Leave Link  103 at Sat Oct 14 11:59:19 2017, MaxMem=  2684354560 cpu:               0.1 elap:               0.0
 (Enter /n/sw/g16_nehalem/g16/l202.exe)
                          Input orientation:                          
 ---------------------------------------------------------------------
 Center     Atomic      Atomic             Coordinates (Angstroms)
 Number     Number       Type             X           Y           Z
 ---------------------------------------------------------------------
      1          7           0        0.000000    0.000000    0.655035
      2          6           0        0.000000    0.000000   -0.501957
      3          1           0        0.000000    0.000000   -1.573506
 ---------------------------------------------------------------------
                    Distance matrix (angstroms):
                    1          2          3
     1  N    0.000000
     2  C    1.156992   0.000000
     3  H    2.228541   1.071549   0.000000
 Stoichiometry    CHN
 Framework group  C*V[C*(HCN)]
 Deg. of freedom     2
 Full point group                 C*V     NOp   4
 Largest Abelian subgroup         C2V     NOp   4
 Largest concise Abelian subgroup C1      NOp   1
                         Standard orientation:                         
 ---------------------------------------------------------------------
 Center     Atomic      Atomic             Coordinates (Angstroms)
 Number     Number       Type             X           Y           Z
 ---------------------------------------------------------------------
      1          7           0        0.000000    0.000000    0.655035
      2          6           0        0.000000    0.000000   -0.501957
      3          1           0        0.000000    0.000000   -1.573506
 ---------------------------------------------------------------------
 Rotational constants (GHZ):           0.0000000          44.1893532          44.1893532
 Leave Link  202 at Sat Oct 14 11:59:20 2017, MaxMem=  2684354560 cpu:               0.3 elap:               0.0
 (Enter /n/sw/g16_nehalem/g16/l301.exe)
 Standard basis: 6-31G(d) (6D, 7F)
 Ernie: Thresh=  0.10000D-02 Tol=  0.10000D-05 Strict=F.
 There are    18 symmetry adapted cartesian basis functions of A1  symmetry.
 There are     2 symmetry adapted cartesian basis functions of A2  symmetry.
 There are     6 symmetry adapted cartesian basis functions of B1  symmetry.
 There are     6 symmetry adapted cartesian basis functions of B2  symmetry.
 There are    18 symmetry adapted basis functions of A1  symmetry.
 There are     2 symmetry adapted basis functions of A2  symmetry.
 There are     6 symmetry adapted basis functions of B1  symmetry.
 There are     6 symmetry adapted basis functions of B2  symmetry.
    32 basis functions,    60 primitive gaussians,    32 cartesian basis functions
     7 alpha electrons        7 beta electrons
       nuclear repulsion energy        23.8349184301 Hartrees.
 IExCor=  402 DFT=T Ex+Corr=B3LYP ExCW=0 ScaHFX=  0.200000
 ScaDFX=  0.800000  0.720000  1.000000  0.810000 ScalE2=  1.000000  1.000000
 IRadAn=      7 IRanWt=     -1 IRanGd=            0 ICorTp=0 IEmpDi=  4
 NAtoms=    3 NActive=    3 NUniq=    3 SFac= 1.00D+00 NAtFMM=   60 NAOKFM=F Big=F
 Integral buffers will be    131072 words long.
 Raffenetti 2 integral format.
 Two-electron integral symmetry is turned on.
 Leave Link  301 at Sat Oct 14 11:59:20 2017, MaxMem=  2684354560 cpu:               0.4 elap:               0.1
 (Enter /n/sw/g16_nehalem/g16/l302.exe)
 NPDir=0 NMtPBC=     1 NCelOv=     1 NCel=       1 NClECP=     1 NCelD=      1
         NCelK=      1 NCelE2=     1 NClLst=     1 CellRange=     0.0.
 One-electron integrals computed using PRISM.
 One-electron integral symmetry used in STVInt
 NBasis=    32 RedAO= T EigKep=  3.00D-03  NBF=    18     2     6     6
 NBsUse=    32 1.00D-06 EigRej= -1.00D+00 NBFU=    18     2     6     6
 Precomputing XC quadrature grid using
 IXCGrd= 4 IRadAn=           7 IRanWt=          -1 IRanGd=           0 AccXCQ= 0.00D+00.
 Generated NRdTot=       0 NPtTot=           0 NUsed=           0 NTot=          32
 NSgBfM=    32    32    32    32    32 MxSgAt=     3 MxSgA2=     3.
 Leave Link  302 at Sat Oct 14 11:59:20 2017, MaxMem=  2684354560 cpu:               2.0 elap:               0.3
 (Enter /n/sw/g16_nehalem/g16/l303.exe)
 DipDrv:  MaxL=1.
 Leave Link  303 at Sat Oct 14 11:59:20 2017, MaxMem=  2684354560 cpu:               0.3 elap:               0.0
 (Enter /n/sw/g16_nehalem/g16/l401.exe)
 ExpMin= 1.61D-01 ExpMax= 4.17D+03 ExpMxC= 6.27D+02 IAcc=3 IRadAn=         7 AccDes= 0.00D+00
 Harris functional with IExCor=  402 and IRadAn=       7 diagonalized for initial guess.
 HarFok:  IExCor=  402 AccDes= 0.00D+00 IRadAn=         7 IDoV= 1 UseB2=F ITyADJ=14
 ICtDFT=  3500011 ScaDFX=  1.000000  1.000000  1.000000  1.000000
 FoFCou: FMM=F IPFlag=           0 FMFlag=      100000 FMFlg1=           0
         NFxFlg=           0 DoJE=T BraDBF=F KetDBF=T FulRan=T
         wScrn=  0.000000 ICntrl=       500 IOpCl=  0 I1Cent=   200000004 NGrid=           0
         NMat0=    1 NMatS0=      1 NMatT0=    0 NMatD0=    1 NMtDS0=    0 NMtDT0=    0
 Petite list used in FoFCou.
 Harris En= -93.4272810492096    
 JPrj=0 DoOrth=F DoCkMO=F.
 Initial guess orbital symmetries:
       Occupied  (SG) (SG) (SG) (SG) (SG) (PI) (PI)
       Virtual   (PI) (PI) (SG) (SG) (PI) (PI) (SG) (SG) (PI) (PI)
                 (SG) (SG) (SG) (DLTA) (DLTA) (PI) (PI) (DLTA)
                 (DLTA) (PI) (PI) (SG) (SG) (SG) (SG)
 The electronic state of the initial guess is 1-SG.
 Leave Link  401 at Sat Oct 14 11:59:20 2017, MaxMem=  2684354560 cpu:               2.1 elap:               0.3
 (Enter /n/sw/g16_nehalem/g16/l502.exe)
 Keep R1 ints in memory in symmetry-blocked form, NReq=7073427.
 FoFCou: FMM=F IPFlag=           0 FMFlag=           0 FMFlg1=           0
         NFxFlg=           0 DoJE=F BraDBF=F KetDBF=F FulRan=T
         wScrn=  0.000000 ICntrl=       600 IOpCl=  0 I1Cent=           0 NGrid=           0
         NMat0=    1 NMatS0=    528 NMatT0=    0 NMatD0=    1 NMtDS0=    0 NMtDT0=    0
 Petite list used in FoFCou.
 Closed shell SCF:
 Using DIIS extrapolation, IDIIS=  1040.
 NGot=  2684354560 LenX=  2684308775 LenY=  2684307310
 Requested convergence on RMS density matrix=1.00D-08 within 128 cycles.
 Requested convergence on MAX density matrix=1.00D-06.
 Requested convergence on             energy=1.00D-06.
 No special actions if energy rises.
 Integral accuracy reduced to 1.0D-05 until final iterations.

 Cycle   1  Pass 0  IDiag  1:
 E= -93.3803347259993    
 DIIS: error= 3.43D-02 at cycle   1 NSaved=   1.
 NSaved= 1 IEnMin= 1 EnMin= -93.3803347259993     IErMin= 1 ErrMin= 3.43D-02
 ErrMax= 3.43D-02  0.00D+00 EMaxC= 1.00D-01 BMatC= 4.24D-02 BMatP= 4.24D-02
 IDIUse=3 WtCom= 6.57D-01 WtEn= 3.43D-01
 Coeff-Com:  0.100D+01
 Coeff-En:   0.100D+01
 Coeff:      0.100D+01
 Gap=     0.342 Goal=   None    Shift=    0.000
 GapD=    0.342 DampG=1.000 DampE=0.500 DampFc=0.5000 IDamp=-1.
 Damping current iteration by 5.00D-01
 RMSDP=1.47D-02 MaxDP=1.23D-01              OVMax= 1.97D-01

 Cycle   2  Pass 0  IDiag  1:
 E= -93.3837150206392     Delta-E=       -0.003380294640 Rises=F Damp=T
 DIIS: error= 2.58D-02 at cycle   2 NSaved=   2.
 NSaved= 2 IEnMin= 2 EnMin= -93.3837150206392     IErMin= 2 ErrMin= 2.58D-02
 ErrMax= 2.58D-02  0.00D+00 EMaxC= 1.00D-01 BMatC= 1.47D-02 BMatP= 4.24D-02
 IDIUse=3 WtCom= 7.42D-01 WtEn= 2.58D-01
 Coeff-Com:  0.328D+00 0.672D+00
 Coeff-En:   0.466D+00 0.534D+00
 Coeff:      0.364D+00 0.636D+00
 Gap=     0.361 Goal=   None    Shift=    0.000
 RMSDP=3.73D-03 MaxDP=3.94D-02 DE=-3.38D-03 OVMax= 1.49D-01

 Cycle   3  Pass 0  IDiag  1:
 E= -93.4179521222511     Delta-E=       -0.034237101612 Rises=F Damp=F
 DIIS: error= 1.33D-02 at cycle   3 NSaved=   3.
 NSaved= 3 IEnMin= 3 EnMin= -93.4179521222511     IErMin= 3 ErrMin= 1.33D-02
 ErrMax= 1.33D-02  0.00D+00 EMaxC= 1.00D-01 BMatC= 4.76D-03 BMatP= 1.47D-02
 IDIUse=3 WtCom= 8.67D-01 WtEn= 1.33D-01
 Coeff-Com:  0.962D-01 0.350D+00 0.553D+00
 Coeff-En:   0.000D+00 0.000D+00 0.100D+01
 Coeff:      0.834D-01 0.304D+00 0.613D+00
 Gap=     0.379 Goal=   None    Shift=    0.000
 RMSDP=2.16D-03 MaxDP=2.26D-02 DE=-3.42D-02 OVMax= 3.17D-02

 Cycle   4  Pass 0  IDiag  1:
 E= -93.4219747779135     Delta-E=       -0.004022655662 Rises=F Damp=F
 DIIS: error= 6.03D-03 at cycle   4 NSaved=   4.
 NSaved= 4 IEnMin= 4 EnMin= -93.4219747779135     IErMin= 4 ErrMin= 6.03D-03
 ErrMax= 6.03D-03  0.00D+00 EMaxC= 1.00D-01 BMatC= 7.18D-04 BMatP= 4.76D-03
 IDIUse=3 WtCom= 9.40D-01 WtEn= 6.03D-02
 Coeff-Com:  0.244D-01-0.477D-01 0.220D+00 0.803D+00
 Coeff-En:   0.000D+00 0.000D+00 0.114D+00 0.886D+00
 Coeff:      0.230D-01-0.448D-01 0.214D+00 0.808D+00
 Gap=     0.380 Goal=   None    Shift=    0.000
 RMSDP=5.47D-04 MaxDP=6.02D-03 DE=-4.02D-03 OVMax= 9.56D-03

 Cycle   5  Pass 0  IDiag  1:
 E= -93.4226137617387     Delta-E=       -0.000638983825 Rises=F Damp=F
 DIIS: error= 4.03D-04 at cycle   5 NSaved=   5.
 NSaved= 5 IEnMin= 5 EnMin= -93.4226137617387     IErMin= 5 ErrMin= 4.03D-04
 ErrMax= 4.03D-04  0.00D+00 EMaxC= 1.00D-01 BMatC= 3.59D-06 BMatP= 7.18D-04
 IDIUse=3 WtCom= 9.96D-01 WtEn= 4.03D-03
 Coeff-Com:  0.400D-02-0.821D-02 0.480D-01 0.211D+00 0.745D+00
 Coeff-En:   0.000D+00 0.000D+00 0.000D+00 0.000D+00 0.100D+01
 Coeff:      0.399D-02-0.818D-02 0.478D-01 0.210D+00 0.746D+00
 Gap=     0.380 Goal=   None    Shift=    0.000
 RMSDP=3.52D-05 MaxDP=3.74D-04 DE=-6.39D-04 OVMax= 5.84D-04

 Cycle   6  Pass 0  IDiag  1:
 E= -93.4226166371912     Delta-E=       -0.000002875453 Rises=F Damp=F
 DIIS: error= 1.09D-05 at cycle   6 NSaved=   6.
 NSaved= 6 IEnMin= 6 EnMin= -93.4226166371912     IErMin= 6 ErrMin= 1.09D-05
 ErrMax= 1.09D-05  0.00D+00 EMaxC= 1.00D-01 BMatC= 3.11D-09 BMatP= 3.59D-06
 IDIUse=1 WtCom= 1.00D+00 WtEn= 0.00D+00
 Coeff-Com:  0.131D-03-0.331D-03-0.593D-03-0.209D-02-0.159D-01 0.102D+01
 Coeff:      0.131D-03-0.331D-03-0.593D-03-0.209D-02-0.159D-01 0.102D+01
 Gap=     0.380 Goal=   None    Shift=    0.000
 RMSDP=1.97D-06 MaxDP=1.38D-05 DE=-2.88D-06 OVMax= 1.79D-05

 Initial convergence to 1.0D-05 achieved.  Increase integral accuracy.
 Cycle   7  Pass 1  IDiag  1:
 E= -93.4226166314740     Delta-E=        0.000000005717 Rises=F Damp=F
 DIIS: error= 4.21D-07 at cycle   1 NSaved=   1.
 NSaved= 1 IEnMin= 1 EnMin= -93.4226166314740     IErMin= 1 ErrMin= 4.21D-07
 ErrMax= 4.21D-07  0.00D+00 EMaxC= 1.00D-01 BMatC= 3.45D-12 BMatP= 3.45D-12
 IDIUse=1 WtCom= 1.00D+00 WtEn= 0.00D+00
 Coeff-Com:  0.100D+01
 Coeff:      0.100D+01
 Gap=     0.380 Goal=   None    Shift=    0.000
 RMSDP=1.97D-06 MaxDP=1.38D-05 DE= 5.72D-09 OVMax= 9.99D-07

 Cycle   8  Pass 1  IDiag  1:
 E= -93.4226166314747     Delta-E=       -0.000000000001 Rises=F Damp=F
 DIIS: error= 3.61D-07 at cycle   2 NSaved=   2.
 NSaved= 2 IEnMin= 2 EnMin= -93.4226166314747     IErMin= 2 ErrMin= 3.61D-07
 ErrMax= 3.61D-07  0.00D+00 EMaxC= 1.00D-01 BMatC= 2.65D-12 BMatP= 3.45D-12
 IDIUse=1 WtCom= 1.00D+00 WtEn= 0.00D+00
 Coeff-Com:  0.458D+00 0.542D+00
 Coeff:      0.458D+00 0.542D+00
 Gap=     0.380 Goal=   None    Shift=    0.000
 RMSDP=5.52D-08 MaxDP=5.62D-07 DE=-6.82D-13 OVMax= 1.00D-06

 Cycle   9  Pass 1  IDiag  1:
 E= -93.4226166314754     Delta-E=       -0.000000000001 Rises=F Damp=F
 DIIS: error= 3.19D-07 at cycle   3 NSaved=   3.
 NSaved= 3 IEnMin= 3 EnMin= -93.4226166314754     IErMin= 3 ErrMin= 3.19D-07
 ErrMax= 3.19D-07  0.00D+00 EMaxC= 1.00D-01 BMatC= 1.95D-12 BMatP= 2.65D-12
 IDIUse=1 WtCom= 1.00D+00 WtEn= 0.00D+00
 Coeff-Com:  0.185D+00 0.418D+00 0.397D+00
 Coeff:      0.185D+00 0.418D+00 0.397D+00
 Gap=     0.380 Goal=   None    Shift=    0.000
 RMSDP=2.97D-08 MaxDP=3.14D-07 DE=-6.54D-13 OVMax= 5.30D-07

 Cycle  10  Pass 1  IDiag  1:
 E= -93.4226166314771     Delta-E=       -0.000000000002 Rises=F Damp=F
 DIIS: error= 2.86D-08 at cycle   4 NSaved=   4.
 NSaved= 4 IEnMin= 4 EnMin= -93.4226166314771     IErMin= 4 ErrMin= 2.86D-08
 ErrMax= 2.86D-08  0.00D+00 EMaxC= 1.00D-01 BMatC= 2.80D-14 BMatP= 1.95D-12
 IDIUse=1 WtCom= 1.00D+00 WtEn= 0.00D+00
 Coeff-Com:  0.411D-01 0.125D+00 0.181D+00 0.654D+00
 Coeff:      0.411D-01 0.125D+00 0.181D+00 0.654D+00
 Gap=     0.380 Goal=   None    Shift=    0.000
 RMSDP=5.00D-09 MaxDP=3.64D-08 DE=-1.71D-12 OVMax= 4.57D-08

 SCF Done:  E(RB3LYP) =  -93.4226166315     A.U. after   10 cycles
            NFock= 10  Conv=0.50D-08     -V/T= 2.0097
 KE= 9.252687225364D+01 PE=-2.652430605868D+02 EE= 5.545865327154D+01
 Leave Link  502 at Sat Oct 14 11:59:21 2017, MaxMem=  2684354560 cpu:               4.6 elap:               0.6
 (Enter /n/sw/g16_nehalem/g16/l601.exe)
 Copying SCF densities to generalized density rwf, IOpCl= 0 IROHF=0.

 **********************************************************************

            Population analysis using the SCF density.

 **********************************************************************

 Orbital symmetries:
       Occupied  (SG) (SG) (SG) (SG) (SG) (PI) (PI)
       Virtual   (PI) (PI) (SG) (SG) (PI) (PI) (SG) (SG) (PI) (PI)
                 (SG) (SG) (SG) (DLTA) (DLTA) (PI) (PI) (DLTA)
                 (DLTA) (PI) (PI) (SG) (SG) (SG) (SG)
 The electronic state is 1-SG.
 Alpha  occ. eigenvalues --  -14.36050 -10.24686  -0.91978  -0.60844  -0.38045
 Alpha  occ. eigenvalues --   -0.35915  -0.35915
 Alpha virt. eigenvalues --    0.02052   0.02052   0.08057   0.27782   0.51960
 Alpha virt. eigenvalues --    0.51960   0.63618   0.68999   0.77122   0.77122
 Alpha virt. eigenvalues --    0.80994   1.09135   1.43888   1.50627   1.50627
 Alpha virt. eigenvalues --    1.52893   1.52893   1.94937   1.94937   2.55183
 Alpha virt. eigenvalues --    2.55183   2.59870   2.97279   3.84768   4.09130
          Condensed to atoms (all electrons):
               1          2          3
     1  N    6.553254   0.840629  -0.035744
     2  C    0.840629   4.715061   0.335824
     3  H   -0.035744   0.335824   0.450267
 Mulliken charges:
               1
     1  N   -0.358139
     2  C    0.108486
     3  H    0.249653
 Sum of Mulliken charges =   0.00000
 Mulliken charges with hydrogens summed into heavy atoms:
               1
     1  N   -0.358139
     2  C    0.358139
 Electronic spatial extent (au):  <R**2>=             49.0061
 Charge=              0.0000 electrons
 Dipole moment (field-independent basis, Debye):
    X=              0.0000    Y=              0.0000    Z=             -2.9059  Tot=              2.9059
 Quadrupole moment (field-independent basis, Debye-Ang):
   XX=            -11.3966   YY=            -11.3966   ZZ=             -9.5417
   XY=              0.0000   XZ=              0.0000   YZ=              0.0000
 Traceless Quadrupole moment (field-independent basis, Debye-Ang):
   XX=             -0.6183   YY=             -0.6183   ZZ=              1.2366
   XY=              0.0000   XZ=              0.0000   YZ=              0.0000
 Octapole moment (field-independent basis, Debye-Ang**2):
  XXX=              0.0000  YYY=              0.0000  ZZZ=             -6.8713  XYY=              0.0000
  XXY=              0.0000  XXZ=             -0.1430  XZZ=              0.0000  YZZ=              0.0000
  YYZ=             -0.1430  XYZ=              0.0000
 Hexadecapole moment (field-independent basis, Debye-Ang**3):
 XXXX=            -10.3098 YYYY=            -10.3098 ZZZZ=            -35.0080 XXXY=              0.0000
 XXXZ=              0.0000 YYYX=              0.0000 YYYZ=              0.0000 ZZZX=              0.0000
 ZZZY=              0.0000 XXYY=             -3.4366 XXZZ=             -8.6481 YYZZ=             -8.6481
 XXYZ=              0.0000 YYXZ=              0.0000 ZZXY=              0.0000
 N-N= 2.383491843014D+01 E-N=-2.652430615989D+02  KE= 9.252687225364D+01
 Symmetry A1   KE= 8.688038920813D+01
 Symmetry A2   KE=-1.338947602376D-50
 Symmetry B1   KE= 2.823241522756D+00
 Symmetry B2   KE= 2.823241522756D+00
 There are a total of      177252 grid points.
 ElSum from          density=       13.9999999983
 ElSum from atomic densities=       13.9999999979
 Hirshfeld populations at iteration   1 (CA, CB, DipXYZ):
               1          2          3          4          5
     1  N    3.589006   3.589006   0.000000   0.000000  -0.054991
     2  C    2.975369   2.975369   0.000000   0.000000  -0.250355
     3  H    0.435625   0.435625   0.000000   0.000000  -0.188013
       Tot   7.000000   7.000000   0.000000   0.000000  -0.493359

 Dip from Atomic Chgs              0.000000   0.000000  -0.649914
         Total Dipole              0.000000   0.000000  -1.143274

 Hirshfeld charges, spin densities, dipoles, and CM5 charges using IRadAn=      7:
              Q-H        S-H        Dx         Dy         Dz        Q-CM5   
     1  N   -0.178012   0.000000   0.000000   0.000000  -0.054991  -0.304681
     2  C    0.049263   0.000000   0.000000   0.000000  -0.250355   0.116918
     3  H    0.128749   0.000000   0.000000   0.000000  -0.188013   0.187763
       Tot   0.000000   0.000000   0.000000   0.000000  -0.493359   0.000000
 Hirshfeld charges with hydrogens summed into heavy atoms:
              Q-H       Q-CM5   
     1  N   -0.178012  -0.304681
     2  C    0.178012   0.304681
 
 EQQ= 0.000000000000E+00 EQD= 0.000000000000E+00 EDD= 0.712471733437E-02
 EQQ+QD+DD= 0.712471733437E-02
 
 No NMR shielding tensors so no spin-rotation constants.
 Leave Link  601 at Sat Oct 14 11:59:21 2017, MaxMem=  2684354560 cpu:               1.8 elap:               0.2
 (Enter /n/sw/g16_nehalem/g16/l701.exe)
 ... and contract with generalized density number  0.
 Compute integral first derivatives.
 Leave Link  701 at Sat Oct 14 11:59:21 2017, MaxMem=  2684354560 cpu:               1.2 elap:               0.2
 (Enter /n/sw/g16_nehalem/g16/l702.exe)
 L702 exits ... SP integral derivatives will be done elsewhere.
 Leave Link  702 at Sat Oct 14 11:59:21 2017, MaxMem=  2684354560 cpu:               0.2 elap:               0.0
 (Enter /n/sw/g16_nehalem/g16/l703.exe)
 Integral derivatives from FoFJK, PRISM(SPDF).
 Compute integral first derivatives, UseDBF=F ICtDFT=           0.
 Calling FoFJK, ICntrl=      2127 FMM=F ISym2X=1 I1Cent= 0 IOpClX= 0 NMat=1 NMatS=1 NMatT=0.
 FoFJK:  IHMeth= 1 ICntrl=    2127 DoSepK=F KAlg= 0 I1Cent=           0 FoldK=F
 IRaf=         0 NMat=       1 IRICut=       1 DoRegI=T DoRafI=F ISym2E= 1 IDoP0=0 IntGTp=1.
 FoFCou: FMM=F IPFlag=           0 FMFlag=      100000 FMFlg1=         800
         NFxFlg=           0 DoJE=F BraDBF=F KetDBF=F FulRan=T
         wScrn=  0.000000 ICntrl=      2127 IOpCl=  0 I1Cent=           0 NGrid=           0
         NMat0=    1 NMatS0=      1 NMatT0=    0 NMatD0=    1 NMtDS0=    0 NMtDT0=    0
 Petite list used in FoFCou.
 Leave Link  703 at Sat Oct 14 11:59:22 2017, MaxMem=  2684354560 cpu:               2.6 elap:               0.3
 (Enter /n/sw/g16_nehalem/g16/l716.exe)
 Dipole        = 0.00000000D+00 0.00000000D+00-1.14327350D+00
 ***** Axes restored to original set *****
 -------------------------------------------------------------------
 Center     Atomic                   Forces (Hartrees/Bohr)
 Number     Number              X              Y              Z
 -------------------------------------------------------------------
      1        7           0.000000000    0.000000000    0.000189070
      2        6           0.000000000    0.000000000   -0.001041411
      3        1           0.000000000    0.000000000    0.000852341
 -------------------------------------------------------------------
 Cartesian Forces:  Max     0.001041411 RMS     0.000452986
 Leave Link  716 at Sat Oct 14 11:59:22 2017, MaxMem=  2684354560 cpu:               0.2 elap:               0.0
 (Enter /n/sw/g16_nehalem/g16/l103.exe)

 GradGradGradGradGradGradGradGradGradGradGradGradGradGradGradGradGradGrad
 Berny optimization.
 FormGI is forming the generalized inverse of G from B-inverse, IUseBI=4.
 Internal  Forces:  Max     0.000852341 RMS     0.000436530
 Search for a local minimum.
 Step number   1 out of a maximum of   20
 All quantities printed in internal units (Hartrees-Bohrs-Radians)
 RMS Force = .43653D-03 SwitMx=.10000D-02 MixMth= 2
 Mixed Optimization -- En-DIIS/RFO-DIIS
 Second derivative matrix not updated -- first step.
 The second derivative matrix:
                          R1        R2        A1        A2
           R1           1.29783
           R2           0.00000   0.37035
           A1           0.00000   0.00000   0.00479
           A2           0.00000   0.00000   0.00000   0.00479
 ITU=  0
     Eigenvalues ---    0.00479   0.00479   0.37035   1.29783
 RFO step:  Lambda=-1.98916179D-06 EMin= 4.78901480D-03
 Linear search not attempted -- first point.
 Iteration  1 RMS(Cart)=  0.00091128 RMS(Int)=  0.00000000
 Iteration  2 RMS(Cart)=  0.00000000 RMS(Int)=  0.00000000
 ITry= 1 IFail=0 DXMaxC= 1.49D-03 DCOld= 1.00D+10 DXMaxT= 3.00D-01 DXLimC= 3.00D+00 Rises=F
 ClnCor:  largest displacement from symmetrization is 0.00D+00 for atom     0.
 Variable       Old X    -DE/DX   Delta X   Delta X   Delta X     New X
                                 (Linear)    (Quad)   (Total)
    R1        2.18640   0.00019   0.00000   0.00015   0.00015   2.18654
    R2        2.02493  -0.00085   0.00000  -0.00230  -0.00230   2.02263
    A1        3.14159   0.00000   0.00000   0.00000   0.00000   3.14159
    A2        3.14159   0.00000   0.00000   0.00000   0.00000   3.14159
         Item               Value     Threshold  Converged?
 Maximum Force            0.000852     0.000002     NO 
 RMS     Force            0.000437     0.000001     NO 
 Maximum Displacement     0.001486     0.000006     NO 
 RMS     Displacement     0.000911     0.000004     NO 
 Predicted change in Energy=-9.945809D-07
 Lowest energy point so far.  Saving SCF results.
 GradGradGradGradGradGradGradGradGradGradGradGradGradGradGradGradGradGrad

 Leave Link  103 at Sat Oct 14 11:59:22 2017, MaxMem=  2684354560 cpu:               0.0 elap:               0.0
 (Enter /n/sw/g16_nehalem/g16/l202.exe)
                          Input orientation:                          
 ---------------------------------------------------------------------
 Center     Atomic      Atomic             Coordinates (Angstroms)
 Number     Number       Type             X           Y           Z
 ---------------------------------------------------------------------
      1          7           0        0.000000    0.000000    0.654680
      2          6           0        0.000000    0.000000   -0.502389
      3          1           0        0.000000    0.000000   -1.572720
 ---------------------------------------------------------------------
                    Distance matrix (angstroms):
                    1          2          3
     1  N    0.000000
     2  C    1.157069   0.000000
     3  H    2.227400   1.070331   0.000000
 Stoichiometry    CHN
 Framework group  C*V[C*(HCN)]
 Deg. of freedom     2
 Full point group                 C*V     NOp   4
 RotChk:  IX=0 Diff= 0.00D+00
 Largest Abelian subgroup         C2V     NOp   4
 Largest concise Abelian subgroup C1      NOp   1
                         Standard orientation:                         
 ---------------------------------------------------------------------
 Center     Atomic      Atomic             Coordinates (Angstroms)
 Number     Number       Type             X           Y           Z
 ---------------------------------------------------------------------
      1          7           0        0.000000    0.000000    0.654987
      2          6           0        0.000000    0.000000   -0.502082
      3          1           0        0.000000    0.000000   -1.572413
 ---------------------------------------------------------------------
 Rotational constants (GHZ):           0.0000000          44.1998422          44.1998422
 Leave Link  202 at Sat Oct 14 11:59:22 2017, MaxMem=  2684354560 cpu:               0.0 elap:               0.0
 (Enter /n/sw/g16_nehalem/g16/l301.exe)
 Standard basis: 6-31G(d) (6D, 7F)
 Ernie: Thresh=  0.10000D-02 Tol=  0.10000D-05 Strict=F.
 There are    18 symmetry adapted cartesian basis functions of A1  symmetry.
 There are     2 symmetry adapted cartesian basis functions of A2  symmetry.
 There are     6 symmetry adapted cartesian basis functions of B1  symmetry.
 There are     6 symmetry adapted cartesian basis functions of B2  symmetry.
 There are    18 symmetry adapted basis functions of A1  symmetry.
 There are     2 symmetry adapted basis functions of A2  symmetry.
 There are     6 symmetry adapted basis functions of B1  symmetry.
 There are     6 symmetry adapted basis functions of B2  symmetry.
    32 basis functions,    60 primitive gaussians,    32 cartesian basis functions
     7 alpha electrons        7 beta electrons
       nuclear repulsion energy        23.8378613398 Hartrees.
 IExCor=  402 DFT=T Ex+Corr=B3LYP ExCW=0 ScaHFX=  0.200000
 ScaDFX=  0.800000  0.720000  1.000000  0.810000 ScalE2=  1.000000  1.000000
 IRadAn=      7 IRanWt=     -1 IRanGd=            0 ICorTp=0 IEmpDi=  4
 NAtoms=    3 NActive=    3 NUniq=    3 SFac= 1.00D+00 NAtFMM=   60 NAOKFM=F Big=F
 Integral buffers will be    131072 words long.
 Raffenetti 2 integral format.
 Two-electron integral symmetry is turned on.
 Leave Link  301 at Sat Oct 14 11:59:22 2017, MaxMem=  2684354560 cpu:               0.5 elap:               0.1
 (Enter /n/sw/g16_nehalem/g16/l302.exe)
 NPDir=0 NMtPBC=     1 NCelOv=     1 NCel=       1 NClECP=     1 NCelD=      1
         NCelK=      1 NCelE2=     1 NClLst=     1 CellRange=     0.0.
 One-electron integrals computed using PRISM.
 One-electron integral symmetry used in STVInt
 NBasis=    32 RedAO= T EigKep=  3.00D-03  NBF=    18     2     6     6
 NBsUse=    32 1.00D-06 EigRej= -1.00D+00 NBFU=    18     2     6     6
 Precomputing XC quadrature grid using
 IXCGrd= 4 IRadAn=           7 IRanWt=          -1 IRanGd=           0 AccXCQ= 0.00D+00.
 Generated NRdTot=       0 NPtTot=           0 NUsed=           0 NTot=          32
 NSgBfM=    32    32    32    32    32 MxSgAt=     3 MxSgA2=     3.
 Leave Link  302 at Sat Oct 14 11:59:22 2017, MaxMem=  2684354560 cpu:               1.4 elap:               0.2
 (Enter /n/sw/g16_nehalem/g16/l303.exe)
 DipDrv:  MaxL=1.
 Leave Link  303 at Sat Oct 14 11:59:22 2017, MaxMem=  2684354560 cpu:               0.3 elap:               0.0
 (Enter /n/sw/g16_nehalem/g16/l401.exe)
 Initial guess from the checkpoint file:  "/scratch/Gau-18207.chk"
 B after Tr=     0.000000    0.000000    0.000000
         Rot=    1.000000    0.000000    0.000000    0.000000 Ang=   0.00 deg.
 Guess basis will be translated and rotated to current coordinates.
 JPrj=2 DoOrth=T DoCkMO=T.
 Initial guess orbital symmetries:
       Occupied  (SG) (SG) (SG) (SG) (SG) (PI) (PI)
       Virtual   (PI) (PI) (SG) (SG) (PI) (PI) (SG) (SG) (PI) (PI)
                 (SG) (SG) (SG) (DLTA) (DLTA) (PI) (PI) (DLTA)
                 (DLTA) (PI) (PI) (SG) (SG) (SG) (SG)
 The electronic state of the initial guess is 1-SG.
 Leave Link  401 at Sat Oct 14 11:59:22 2017, MaxMem=  2684354560 cpu:               0.8 elap:               0.1
 (Enter /n/sw/g16_nehalem/g16/l502.exe)
 Keep R1 ints in memory in symmetry-blocked form, NReq=7073427.
 FoFCou: FMM=F IPFlag=           0 FMFlag=           0 FMFlg1=           0
         NFxFlg=           0 DoJE=F BraDBF=F KetDBF=F FulRan=T
         wScrn=  0.000000 ICntrl=       600 IOpCl=  0 I1Cent=           0 NGrid=           0
         NMat0=    1 NMatS0=    528 NMatT0=    0 NMatD0=    1 NMtDS0=    0 NMtDT0=    0
 Petite list used in FoFCou.
 Closed shell SCF:
 Using DIIS extrapolation, IDIIS=  1040.
 NGot=  2684354560 LenX=  2684308775 LenY=  2684307310
 Requested convergence on RMS density matrix=1.00D-08 within 128 cycles.
 Requested convergence on MAX density matrix=1.00D-06.
 Requested convergence on             energy=1.00D-06.
 No special actions if energy rises.

 Cycle   1  Pass 1  IDiag  1:
 E= -93.4226172955304    
 DIIS: error= 1.08D-04 at cycle   1 NSaved=   1.
 NSaved= 1 IEnMin= 1 EnMin= -93.4226172955304     IErMin= 1 ErrMin= 1.08D-04
 ErrMax= 1.08D-04  0.00D+00 EMaxC= 1.00D-01 BMatC= 1.74D-07 BMatP= 1.74D-07
 IDIUse=3 WtCom= 9.99D-01 WtEn= 1.08D-03
 Coeff-Com:  0.100D+01
 Coeff-En:   0.100D+01
 Coeff:      0.100D+01
 Gap=     0.380 Goal=   None    Shift=    0.000
 RMSDP=2.13D-05 MaxDP=1.68D-04              OVMax= 3.11D-04

 Cycle   2  Pass 1  IDiag  1:
 E= -93.4226173633307     Delta-E=       -0.000000067800 Rises=F Damp=F
 DIIS: error= 9.83D-05 at cycle   2 NSaved=   2.
 NSaved= 2 IEnMin= 2 EnMin= -93.4226173633307     IErMin= 2 ErrMin= 9.83D-05
 ErrMax= 9.83D-05  0.00D+00 EMaxC= 1.00D-01 BMatC= 1.76D-07 BMatP= 1.74D-07
 IDIUse=1 WtCom= 1.00D+00 WtEn= 0.00D+00
 Coeff-Com:  0.502D+00 0.498D+00
 Coeff:      0.502D+00 0.498D+00
 Gap=     0.380 Goal=   None    Shift=    0.000
 RMSDP=1.45D-05 MaxDP=1.40D-04 DE=-6.78D-08 OVMax= 2.64D-04

 Cycle   3  Pass 1  IDiag  1:
 E= -93.4226174232219     Delta-E=       -0.000000059891 Rises=F Damp=F
 DIIS: error= 7.77D-05 at cycle   3 NSaved=   3.
 NSaved= 3 IEnMin= 3 EnMin= -93.4226174232219     IErMin= 3 ErrMin= 7.77D-05
 ErrMax= 7.77D-05  0.00D+00 EMaxC= 1.00D-01 BMatC= 1.15D-07 BMatP= 1.74D-07
 IDIUse=1 WtCom= 1.00D+00 WtEn= 0.00D+00
 Coeff-Com:  0.803D-01 0.430D+00 0.490D+00
 Coeff:      0.803D-01 0.430D+00 0.490D+00
 Gap=     0.380 Goal=   None    Shift=    0.000
 RMSDP=6.64D-06 MaxDP=6.92D-05 DE=-5.99D-08 OVMax= 1.14D-04

 Cycle   4  Pass 1  IDiag  1:
 E= -93.4226175226554     Delta-E=       -0.000000099433 Rises=F Damp=F
 DIIS: error= 2.75D-06 at cycle   4 NSaved=   4.
 NSaved= 4 IEnMin= 4 EnMin= -93.4226175226554     IErMin= 4 ErrMin= 2.75D-06
 ErrMax= 2.75D-06  0.00D+00 EMaxC= 1.00D-01 BMatC= 2.01D-10 BMatP= 1.15D-07
 IDIUse=1 WtCom= 1.00D+00 WtEn= 0.00D+00
 Coeff-Com: -0.297D-04 0.744D-01 0.799D-01 0.846D+00
 Coeff:     -0.297D-04 0.744D-01 0.799D-01 0.846D+00
 Gap=     0.380 Goal=   None    Shift=    0.000
 RMSDP=6.61D-07 MaxDP=4.83D-06 DE=-9.94D-08 OVMax= 5.98D-06

 Cycle   5  Pass 1  IDiag  1:
 E= -93.4226175228454     Delta-E=       -0.000000000190 Rises=F Damp=F
 DIIS: error= 7.16D-07 at cycle   5 NSaved=   5.
 NSaved= 5 IEnMin= 5 EnMin= -93.4226175228454     IErMin= 5 ErrMin= 7.16D-07
 ErrMax= 7.16D-07  0.00D+00 EMaxC= 1.00D-01 BMatC= 2.51D-11 BMatP= 2.01D-10
 IDIUse=1 WtCom= 1.00D+00 WtEn= 0.00D+00
 Coeff-Com: -0.242D-02 0.127D-01 0.145D-01 0.305D+00 0.670D+00
 Coeff:     -0.242D-02 0.127D-01 0.145D-01 0.305D+00 0.670D+00
 Gap=     0.380 Goal=   None    Shift=    0.000
 RMSDP=1.69D-07 MaxDP=1.38D-06 DE=-1.90D-10 OVMax= 1.63D-06

 Cycle   6  Pass 1  IDiag  1:
 E= -93.4226175228708     Delta-E=       -0.000000000025 Rises=F Damp=F
 DIIS: error= 1.49D-07 at cycle   6 NSaved=   6.
 NSaved= 6 IEnMin= 6 EnMin= -93.4226175228708     IErMin= 6 ErrMin= 1.49D-07
 ErrMax= 1.49D-07  0.00D+00 EMaxC= 1.00D-01 BMatC= 5.77D-13 BMatP= 2.51D-11
 IDIUse=1 WtCom= 1.00D+00 WtEn= 0.00D+00
 Coeff-Com: -0.323D-03-0.784D-03 0.877D-03 0.196D-01 0.111D+00 0.870D+00
 Coeff:     -0.323D-03-0.784D-03 0.877D-03 0.196D-01 0.111D+00 0.870D+00
 Gap=     0.380 Goal=   None    Shift=    0.000
 RMSDP=1.86D-08 MaxDP=1.58D-07 DE=-2.54D-11 OVMax= 2.69D-07

 Cycle   7  Pass 1  IDiag  1:
 E= -93.4226175228714     Delta-E=       -0.000000000001 Rises=F Damp=F
 DIIS: error= 2.41D-09 at cycle   7 NSaved=   7.
 NSaved= 7 IEnMin= 7 EnMin= -93.4226175228714     IErMin= 7 ErrMin= 2.41D-09
 ErrMax= 2.41D-09  0.00D+00 EMaxC= 1.00D-01 BMatC= 2.49D-16 BMatP= 5.77D-13
 IDIUse=1 WtCom= 1.00D+00 WtEn= 0.00D+00
 Coeff-Com:  0.121D-04-0.117D-04-0.106D-03-0.133D-02-0.372D-02-0.282D-01
 Coeff-Com:  0.103D+01
 Coeff:      0.121D-04-0.117D-04-0.106D-03-0.133D-02-0.372D-02-0.282D-01
 Coeff:      0.103D+01
 Gap=     0.380 Goal=   None    Shift=    0.000
 RMSDP=5.08D-10 MaxDP=6.11D-09 DE=-5.68D-13 OVMax= 5.16D-09

 SCF Done:  E(RB3LYP) =  -93.4226175229     A.U. after    7 cycles
            NFock=  7  Conv=0.51D-09     -V/T= 2.0097
 KE= 9.252821711074D+01 PE=-2.652493911415D+02 EE= 5.546069516807D+01
 Leave Link  502 at Sat Oct 14 11:59:23 2017, MaxMem=  2684354560 cpu:               4.6 elap:               0.6
 (Enter /n/sw/g16_nehalem/g16/l701.exe)
 ... and contract with generalized density number  0.
 Compute integral first derivatives.
 Leave Link  701 at Sat Oct 14 11:59:23 2017, MaxMem=  2684354560 cpu:               1.2 elap:               0.2
 (Enter /n/sw/g16_nehalem/g16/l702.exe)
 L702 exits ... SP integral derivatives will be done elsewhere.
 Leave Link  702 at Sat Oct 14 11:59:23 2017, MaxMem=  2684354560 cpu:               0.2 elap:               0.0
 (Enter /n/sw/g16_nehalem/g16/l703.exe)
 Integral derivatives from FoFJK, PRISM(SPDF).
 Compute integral first derivatives, UseDBF=F ICtDFT=           0.
 Calling FoFJK, ICntrl=      2127 FMM=F ISym2X=1 I1Cent= 0 IOpClX= 0 NMat=1 NMatS=1 NMatT=0.
 FoFJK:  IHMeth= 1 ICntrl=    2127 DoSepK=F KAlg= 0 I1Cent=           0 FoldK=F
 IRaf=         0 NMat=       1 IRICut=       1 DoRegI=T DoRafI=F ISym2E= 1 IDoP0=0 IntGTp=1.
 FoFCou: FMM=F IPFlag=           0 FMFlag=      100000 FMFlg1=         800
         NFxFlg=           0 DoJE=F BraDBF=F KetDBF=F FulRan=T
         wScrn=  0.000000 ICntrl=      2127 IOpCl=  0 I1Cent=           0 NGrid=           0
         NMat0=    1 NMatS0=      1 NMatT0=    0 NMatD0=    1 NMtDS0=    0 NMtDT0=    0
 Petite list used in FoFCou.
 Leave Link  703 at Sat Oct 14 11:59:23 2017, MaxMem=  2684354560 cpu:               2.6 elap:               0.3
 (Enter /n/sw/g16_nehalem/g16/l716.exe)
 Dipole        = 0.00000000D+00 0.00000000D+00-1.14274901D+00
 ***** Axes restored to original set *****
 -------------------------------------------------------------------
 Center     Atomic                   Forces (Hartrees/Bohr)
 Number     Number              X              Y              Z
 -------------------------------------------------------------------
      1        7           0.000000000    0.000000000   -0.000030421
      2        6           0.000000000    0.000000000    0.000119255
      3        1           0.000000000    0.000000000   -0.000088834
 -------------------------------------------------------------------
 Cartesian Forces:  Max     0.000119255 RMS     0.000050595
 Leave Link  716 at Sat Oct 14 11:59:24 2017, MaxMem=  2684354560 cpu:               0.3 elap:               0.0
 (Enter /n/sw/g16_nehalem/g16/l103.exe)

 GradGradGradGradGradGradGradGradGradGradGradGradGradGradGradGradGradGrad
 Berny optimization.
 Using GEDIIS/GDIIS optimizer.
 Red2BG is reusing G-inverse.
 Internal  Forces:  Max     0.000088834 RMS     0.000046949
 Search for a local minimum.
 Step number   2 out of a maximum of   20
 All quantities printed in internal units (Hartrees-Bohrs-Radians)
 RMS Force = .46949D-04 SwitMx=.10000D-02 MixMth= 2
 Mixed Optimization -- En-DIIS/RFO-DIIS
 Swapping is turned off.
 Update second derivatives using D2CorX and points    1    2
 DE= -8.91D-07 DEPred=-9.95D-07 R= 8.96D-01
 Trust test= 8.96D-01 RLast= 2.31D-03 DXMaxT set to 3.00D-01
 The second derivative matrix:
                          R1        R2        A1        A2
           R1           1.30177
           R2          -0.01297   0.40813
           A1           0.00000   0.00000   0.00479
           A2           0.00000   0.00000   0.00000   0.00479
 ITU=  0  0
     Eigenvalues ---    0.00479   0.00479   0.40794   1.30196
 En-DIIS/RFO-DIIS/Sim-DIIS IScMMF=       -3 using points:     2    1
 RFO step:  Lambda=-1.79846266D-08.
 NNeg= 0 NGDIIS= 2 SimSw=  2.50D-03 Rises=F DC= -8.91D-07 SmlDif=  1.00D-05
 NRisDI= 0 DoIntr=F SqrtH=F CThrHd= 10.0 CDAdj=  3.0
 RMS Error=  0.1090105354D-03 NUsed= 2 OKEnD=F EnDIS=F
 InvSVX:  RCond= 5.98D-06 Info=           0 Equed=N FErr=  9.83D-16 BErr=  6.42D-17
 DidBck=F Rises=F RFO-DIIS coefs:    0.90551    0.09449
 Iteration  1 RMS(Cart)=  0.00008459 RMS(Int)=  0.00000000
 Iteration  2 RMS(Cart)=  0.00000000 RMS(Int)=  0.00000000
 ITry= 1 IFail=0 DXMaxC= 1.38D-04 DCOld= 1.00D+10 DXMaxT= 3.00D-01 DXLimC= 3.00D+00 Rises=F
 ClnCor:  largest displacement from symmetrization is 0.00D+00 for atom     0.
 Variable       Old X    -DE/DX   Delta X   Delta X   Delta X     New X
                                 (Linear)    (Quad)   (Total)
    R1        2.18654  -0.00003  -0.00001  -0.00001  -0.00002   2.18652
    R2        2.02263   0.00009   0.00022   0.00000   0.00022   2.02285
    A1        3.14159   0.00000   0.00000   0.00000   0.00000   3.14159
    A2        3.14159   0.00000   0.00000   0.00000   0.00000   3.14159
         Item               Value     Threshold  Converged?
 Maximum Force            0.000089     0.000002     NO 
 RMS     Force            0.000047     0.000001     NO 
 Maximum Displacement     0.000138     0.000006     NO 
 RMS     Displacement     0.000085     0.000004     NO 
 Predicted change in Energy=-9.960508D-09
 Lowest energy point so far.  Saving SCF results.
 GradGradGradGradGradGradGradGradGradGradGradGradGradGradGradGradGradGrad

 Leave Link  103 at Sat Oct 14 11:59:24 2017, MaxMem=  2684354560 cpu:               0.0 elap:               0.0
 (Enter /n/sw/g16_nehalem/g16/l202.exe)
                          Input orientation:                          
 ---------------------------------------------------------------------
 Center     Atomic      Atomic             Coordinates (Angstroms)
 Number     Number       Type             X           Y           Z
 ---------------------------------------------------------------------
      1          7           0        0.000000    0.000000    0.654711
      2          6           0        0.000000    0.000000   -0.502347
      3          1           0        0.000000    0.000000   -1.572793
 ---------------------------------------------------------------------
                    Distance matrix (angstroms):
                    1          2          3
     1  N    0.000000
     2  C    1.157058   0.000000
     3  H    2.227504   1.070446   0.000000
 Stoichiometry    CHN
 Framework group  C*V[C*(HCN)]
 Deg. of freedom     2
 Full point group                 C*V     NOp   4
 RotChk:  IX=0 Diff= 0.00D+00
 Largest Abelian subgroup         C2V     NOp   4
 Largest concise Abelian subgroup C1      NOp   1
                         Standard orientation:                         
 ---------------------------------------------------------------------
 Center     Atomic      Atomic             Coordinates (Angstroms)
 Number     Number       Type             X           Y           Z
 ---------------------------------------------------------------------
      1          7           0        0.000000    0.000000    0.654989
      2          6           0        0.000000    0.000000   -0.502069
      3          1           0        0.000000    0.000000   -1.572514
 ---------------------------------------------------------------------
 Rotational constants (GHZ):           0.0000000          44.1991091          44.1991091
 Leave Link  202 at Sat Oct 14 11:59:24 2017, MaxMem=  2684354560 cpu:               0.0 elap:               0.0
 (Enter /n/sw/g16_nehalem/g16/l301.exe)
 Standard basis: 6-31G(d) (6D, 7F)
 Ernie: Thresh=  0.10000D-02 Tol=  0.10000D-05 Strict=F.
 There are    18 symmetry adapted cartesian basis functions of A1  symmetry.
 There are     2 symmetry adapted cartesian basis functions of A2  symmetry.
 There are     6 symmetry adapted cartesian basis functions of B1  symmetry.
 There are     6 symmetry adapted cartesian basis functions of B2  symmetry.
 There are    18 symmetry adapted basis functions of A1  symmetry.
 There are     2 symmetry adapted basis functions of A2  symmetry.
 There are     6 symmetry adapted basis functions of B1  symmetry.
 There are     6 symmetry adapted basis functions of B2  symmetry.
    32 basis functions,    60 primitive gaussians,    32 cartesian basis functions
     7 alpha electrons        7 beta electrons
       nuclear repulsion energy        23.8376520902 Hartrees.
 IExCor=  402 DFT=T Ex+Corr=B3LYP ExCW=0 ScaHFX=  0.200000
 ScaDFX=  0.800000  0.720000  1.000000  0.810000 ScalE2=  1.000000  1.000000
 IRadAn=      7 IRanWt=     -1 IRanGd=            0 ICorTp=0 IEmpDi=  4
 NAtoms=    3 NActive=    3 NUniq=    3 SFac= 1.00D+00 NAtFMM=   60 NAOKFM=F Big=F
 Integral buffers will be    131072 words long.
 Raffenetti 2 integral format.
 Two-electron integral symmetry is turned on.
 Leave Link  301 at Sat Oct 14 11:59:24 2017, MaxMem=  2684354560 cpu:               0.4 elap:               0.1
 (Enter /n/sw/g16_nehalem/g16/l302.exe)
 NPDir=0 NMtPBC=     1 NCelOv=     1 NCel=       1 NClECP=     1 NCelD=      1
         NCelK=      1 NCelE2=     1 NClLst=     1 CellRange=     0.0.
 One-electron integrals computed using PRISM.
 One-electron integral symmetry used in STVInt
 NBasis=    32 RedAO= T EigKep=  3.00D-03  NBF=    18     2     6     6
 NBsUse=    32 1.00D-06 EigRej= -1.00D+00 NBFU=    18     2     6     6
 Precomputing XC quadrature grid using
 IXCGrd= 4 IRadAn=           7 IRanWt=          -1 IRanGd=           0 AccXCQ= 0.00D+00.
 Generated NRdTot=       0 NPtTot=           0 NUsed=           0 NTot=          32
 NSgBfM=    32    32    32    32    32 MxSgAt=     3 MxSgA2=     3.
 Leave Link  302 at Sat Oct 14 11:59:24 2017, MaxMem=  2684354560 cpu:               1.5 elap:               0.2
 (Enter /n/sw/g16_nehalem/g16/l303.exe)
 DipDrv:  MaxL=1.
 Leave Link  303 at Sat Oct 14 11:59:24 2017, MaxMem=  2684354560 cpu:               0.2 elap:               0.0
 (Enter /n/sw/g16_nehalem/g16/l401.exe)
 Initial guess from the checkpoint file:  "/scratch/Gau-18207.chk"
 B after Tr=     0.000000    0.000000    0.000000
         Rot=    1.000000    0.000000    0.000000    0.000000 Ang=   0.00 deg.
 Guess basis will be translated and rotated to current coordinates.
 JPrj=2 DoOrth=T DoCkMO=T.
 Initial guess orbital symmetries:
       Occupied  (SG) (SG) (SG) (SG) (SG) (PI) (PI)
       Virtual   (PI) (PI) (SG) (SG) (PI) (PI) (SG) (SG) (PI) (PI)
                 (SG) (SG) (SG) (DLTA) (DLTA) (PI) (PI) (DLTA)
                 (DLTA) (PI) (PI) (SG) (SG) (SG) (SG)
 The electronic state of the initial guess is 1-SG.
 Leave Link  401 at Sat Oct 14 11:59:24 2017, MaxMem=  2684354560 cpu:               0.8 elap:               0.1
 (Enter /n/sw/g16_nehalem/g16/l502.exe)
 Keep R1 ints in memory in symmetry-blocked form, NReq=7073427.
 FoFCou: FMM=F IPFlag=           0 FMFlag=           0 FMFlg1=           0
         NFxFlg=           0 DoJE=F BraDBF=F KetDBF=F FulRan=T
         wScrn=  0.000000 ICntrl=       600 IOpCl=  0 I1Cent=           0 NGrid=           0
         NMat0=    1 NMatS0=    528 NMatT0=    0 NMatD0=    1 NMtDS0=    0 NMtDT0=    0
 Petite list used in FoFCou.
 Closed shell SCF:
 Using DIIS extrapolation, IDIIS=  1040.
 NGot=  2684354560 LenX=  2684308775 LenY=  2684307310
 Requested convergence on RMS density matrix=1.00D-08 within 128 cycles.
 Requested convergence on MAX density matrix=1.00D-06.
 Requested convergence on             energy=1.00D-06.
 No special actions if energy rises.

 Cycle   1  Pass 1  IDiag  1:
 E= -93.4226175307252    
 DIIS: error= 1.01D-05 at cycle   1 NSaved=   1.
 NSaved= 1 IEnMin= 1 EnMin= -93.4226175307252     IErMin= 1 ErrMin= 1.01D-05
 ErrMax= 1.01D-05  0.00D+00 EMaxC= 1.00D-01 BMatC= 1.59D-09 BMatP= 1.59D-09
 IDIUse=1 WtCom= 1.00D+00 WtEn= 0.00D+00
 Coeff-Com:  0.100D+01
 Coeff:      0.100D+01
 Gap=     0.380 Goal=   None    Shift=    0.000
 RMSDP=2.05D-06 MaxDP=1.56D-05              OVMax= 2.92D-05

 Cycle   2  Pass 1  IDiag  1:
 E= -93.4226175312807     Delta-E=       -0.000000000556 Rises=F Damp=F
 DIIS: error= 9.60D-06 at cycle   2 NSaved=   2.
 NSaved= 2 IEnMin= 2 EnMin= -93.4226175312807     IErMin= 2 ErrMin= 9.60D-06
 ErrMax= 9.60D-06  0.00D+00 EMaxC= 1.00D-01 BMatC= 1.68D-09 BMatP= 1.59D-09
 IDIUse=1 WtCom= 1.00D+00 WtEn= 0.00D+00
 Coeff-Com:  0.509D+00 0.491D+00
 Coeff:      0.509D+00 0.491D+00
 Gap=     0.380 Goal=   None    Shift=    0.000
 RMSDP=1.40D-06 MaxDP=1.37D-05 DE=-5.56D-10 OVMax= 2.55D-05

 Cycle   3  Pass 1  IDiag  1:
 E= -93.4226175319054     Delta-E=       -0.000000000625 Rises=F Damp=F
 DIIS: error= 7.37D-06 at cycle   3 NSaved=   3.
 NSaved= 3 IEnMin= 3 EnMin= -93.4226175319054     IErMin= 3 ErrMin= 7.37D-06
 ErrMax= 7.37D-06  0.00D+00 EMaxC= 1.00D-01 BMatC= 1.04D-09 BMatP= 1.59D-09
 IDIUse=1 WtCom= 1.00D+00 WtEn= 0.00D+00
 Coeff-Com:  0.769D-01 0.424D+00 0.500D+00
 Coeff:      0.769D-01 0.424D+00 0.500D+00
 Gap=     0.380 Goal=   None    Shift=    0.000
 RMSDP=6.24D-07 MaxDP=6.50D-06 DE=-6.25D-10 OVMax= 1.08D-05

 Cycle   4  Pass 1  IDiag  1:
 E= -93.4226175327995     Delta-E=       -0.000000000894 Rises=F Damp=F
 DIIS: error= 2.28D-07 at cycle   4 NSaved=   4.
 NSaved= 4 IEnMin= 4 EnMin= -93.4226175327995     IErMin= 4 ErrMin= 2.28D-07
 ErrMax= 2.28D-07  0.00D+00 EMaxC= 1.00D-01 BMatC= 1.22D-12 BMatP= 1.04D-09
 IDIUse=1 WtCom= 1.00D+00 WtEn= 0.00D+00
 Coeff-Com: -0.297D-02 0.566D-01 0.600D-01 0.886D+00
 Coeff:     -0.297D-02 0.566D-01 0.600D-01 0.886D+00
 Gap=     0.380 Goal=   None    Shift=    0.000
 RMSDP=5.22D-08 MaxDP=3.61D-07 DE=-8.94D-10 OVMax= 4.55D-07

 Cycle   5  Pass 1  IDiag  1:
 E= -93.4226175328005     Delta-E=       -0.000000000001 Rises=F Damp=F
 DIIS: error= 5.27D-08 at cycle   5 NSaved=   5.
 NSaved= 5 IEnMin= 5 EnMin= -93.4226175328005     IErMin= 5 ErrMin= 5.27D-08
 ErrMax= 5.27D-08  0.00D+00 EMaxC= 1.00D-01 BMatC= 1.44D-13 BMatP= 1.22D-12
 IDIUse=1 WtCom= 1.00D+00 WtEn= 0.00D+00
 Coeff-Com: -0.235D-02 0.114D-01 0.137D-01 0.311D+00 0.667D+00
 Coeff:     -0.235D-02 0.114D-01 0.137D-01 0.311D+00 0.667D+00
 Gap=     0.380 Goal=   None    Shift=    0.000
 RMSDP=1.30D-08 MaxDP=1.03D-07 DE=-1.05D-12 OVMax= 1.22D-07

 Cycle   6  Pass 1  IDiag  1:
 E= -93.4226175328007     Delta-E=        0.000000000000 Rises=F Damp=F
 DIIS: error= 1.15D-08 at cycle   6 NSaved=   6.
 NSaved= 6 IEnMin= 6 EnMin= -93.4226175328007     IErMin= 6 ErrMin= 1.15D-08
 ErrMax= 1.15D-08  0.00D+00 EMaxC= 1.00D-01 BMatC= 4.69D-15 BMatP= 1.44D-13
 IDIUse=1 WtCom= 1.00D+00 WtEn= 0.00D+00
 Coeff-Com: -0.311D-03-0.781D-03 0.744D-03 0.222D-01 0.145D+00 0.833D+00
 Coeff:     -0.311D-03-0.781D-03 0.744D-03 0.222D-01 0.145D+00 0.833D+00
 Gap=     0.380 Goal=   None    Shift=    0.000
 RMSDP=1.82D-09 MaxDP=1.44D-08 DE=-1.85D-13 OVMax= 2.32D-08

 SCF Done:  E(RB3LYP) =  -93.4226175328     A.U. after    6 cycles
            NFock=  6  Conv=0.18D-08     -V/T= 2.0097
 KE= 9.252810963051D+01 PE=-2.652489478992D+02 EE= 5.546056864565D+01
 Leave Link  502 at Sat Oct 14 11:59:24 2017, MaxMem=  2684354560 cpu:               4.1 elap:               0.5
 (Enter /n/sw/g16_nehalem/g16/l701.exe)
 ... and contract with generalized density number  0.
 Compute integral first derivatives.
 Leave Link  701 at Sat Oct 14 11:59:25 2017, MaxMem=  2684354560 cpu:               1.2 elap:               0.2
 (Enter /n/sw/g16_nehalem/g16/l702.exe)
 L702 exits ... SP integral derivatives will be done elsewhere.
 Leave Link  702 at Sat Oct 14 11:59:25 2017, MaxMem=  2684354560 cpu:               0.2 elap:               0.0
 (Enter /n/sw/g16_nehalem/g16/l703.exe)
 Integral derivatives from FoFJK, PRISM(SPDF).
 Compute integral first derivatives, UseDBF=F ICtDFT=           0.
 Calling FoFJK, ICntrl=      2127 FMM=F ISym2X=1 I1Cent= 0 IOpClX= 0 NMat=1 NMatS=1 NMatT=0.
 FoFJK:  IHMeth= 1 ICntrl=    2127 DoSepK=F KAlg= 0 I1Cent=           0 FoldK=F
 IRaf=         0 NMat=       1 IRICut=       1 DoRegI=T DoRafI=F ISym2E= 1 IDoP0=0 IntGTp=1.
 FoFCou: FMM=F IPFlag=           0 FMFlag=      100000 FMFlg1=         800
         NFxFlg=           0 DoJE=F BraDBF=F KetDBF=F FulRan=T
         wScrn=  0.000000 ICntrl=      2127 IOpCl=  0 I1Cent=           0 NGrid=           0
         NMat0=    1 NMatS0=      1 NMatT0=    0 NMatD0=    1 NMtDS0=    0 NMtDT0=    0
 Petite list used in FoFCou.
 Leave Link  703 at Sat Oct 14 11:59:25 2017, MaxMem=  2684354560 cpu:               2.6 elap:               0.3
 (Enter /n/sw/g16_nehalem/g16/l716.exe)
 Dipole        = 0.00000000D+00 0.00000000D+00-1.14279836D+00
 ***** Axes restored to original set *****
 -------------------------------------------------------------------
 Center     Atomic                   Forces (Hartrees/Bohr)
 Number     Number              X              Y              Z
 -------------------------------------------------------------------
      1        7           0.000000000    0.000000000    0.000000007
      2        6           0.000000000    0.000000000   -0.000000285
      3        1           0.000000000    0.000000000    0.000000279
 -------------------------------------------------------------------
 Cartesian Forces:  Max     0.000000285 RMS     0.000000133
 Leave Link  716 at Sat Oct 14 11:59:25 2017, MaxMem=  2684354560 cpu:               0.3 elap:               0.0
 (Enter /n/sw/g16_nehalem/g16/l103.exe)

 GradGradGradGradGradGradGradGradGradGradGradGradGradGradGradGradGradGrad
 Berny optimization.
 Using GEDIIS/GDIIS optimizer.
 Red2BG is reusing G-inverse.
 Internal  Forces:  Max     0.000000279 RMS     0.000000139
 Search for a local minimum.
 Step number   3 out of a maximum of   20
 All quantities printed in internal units (Hartrees-Bohrs-Radians)
 RMS Force = .13937D-06 SwitMx=.10000D-02 MixMth= 2
 Mixed Optimization -- En-DIIS/RFO-DIIS
 Swapping is turned off.
 Update second derivatives using D2CorX and points    1    2    3
 DE= -9.93D-09 DEPred=-9.96D-09 R= 9.97D-01
 Trust test= 9.97D-01 RLast= 2.18D-04 DXMaxT set to 3.00D-01
 The second derivative matrix:
                          R1        R2        A1        A2
           R1           1.30164
           R2          -0.01301   0.40941
           A1           0.00000   0.00000   0.00479
           A2           0.00000   0.00000   0.00000   0.00479
 ITU=  0  0  0
     Eigenvalues ---    0.00479   0.00479   0.40922   1.30183
 En-DIIS/RFO-DIIS/Sim-DIIS IScMMF=       -3 using points:     3    2    1
 RFO step:  Lambda=-1.70796475D-13.
 NNeg= 0 NGDIIS= 3 SimSw=  2.50D-03 Rises=F DC= -9.93D-09 SmlDif=  1.00D-05
 NRisDI= 0 DoIntr=F SqrtH=F CThrHd= 10.0 CDAdj=  3.0
 RMS Error=  0.3403356397D-06 NUsed= 3 OKEnD=F EnDIS=F
 InvSVX:  RCond= 9.16D-12 Info=           0 Equed=N FErr=  1.77D-14 BErr=  1.10D-16
 DIIS inversion failure, remove point   3.
 InvSVX:  RCond= 5.35D-08 Info=           0 Equed=N FErr=  8.91D-16 BErr=  0.00D+00
 DIIS inversion failure, remove point   2.
 Use linear search instead of GDIIS.
 RFO step:  Lambda= 0.00000000D+00 EMin= 4.78901480D-03
 Quartic linear search produced a step of -0.00303.
 Iteration  1 RMS(Cart)=  0.00000028 RMS(Int)=  0.00000000
 ITry= 1 IFail=0 DXMaxC= 4.54D-07 DCOld= 1.00D+10 DXMaxT= 3.00D-01 DXLimC= 3.00D+00 Rises=F
 ClnCor:  largest displacement from symmetrization is 0.00D+00 for atom     0.
 Variable       Old X    -DE/DX   Delta X   Delta X   Delta X     New X
                                 (Linear)    (Quad)   (Total)
    R1        2.18652   0.00000   0.00000   0.00000   0.00000   2.18652
    R2        2.02285   0.00000   0.00000   0.00000   0.00000   2.02285
    A1        3.14159   0.00000   0.00000   0.00000   0.00000   3.14159
    A2        3.14159   0.00000   0.00000   0.00000   0.00000   3.14159
         Item               Value     Threshold  Converged?
 Maximum Force            0.000000     0.000002     YES
 RMS     Force            0.000000     0.000001     YES
 Maximum Displacement     0.000000     0.000006     YES
 RMS     Displacement     0.000000     0.000004     YES
 Predicted change in Energy=-9.482977D-14
 Optimization completed.
    -- Stationary point found.
                           ----------------------------
                           !   Optimized Parameters   !
                           ! (Angstroms and Degrees)  !
 --------------------------                            --------------------------
 ! Name  Definition              Value          Derivative Info.                !
 --------------------------------------------------------------------------------
 ! R1    R(1,2)                  1.1571         -DE/DX =    0.0                 !
 ! R2    R(2,3)                  1.0704         -DE/DX =    0.0                 !
 ! A1    L(1,2,3,-1,-1)        180.0            -DE/DX =    0.0                 !
 ! A2    L(1,2,3,-2,-2)        180.0            -DE/DX =    0.0                 !
 --------------------------------------------------------------------------------
 Lowest energy point so far.  Saving SCF results.
 Largest change from initial coordinates is atom    3       0.001 Angstoms.
 GradGradGradGradGradGradGradGradGradGradGradGradGradGradGradGradGradGrad

 Leave Link  103 at Sat Oct 14 11:59:25 2017, MaxMem=  2684354560 cpu:               0.0 elap:               0.0
 (Enter /n/sw/g16_nehalem/g16/l202.exe)
                          Input orientation:                          
 ---------------------------------------------------------------------
 Center     Atomic      Atomic             Coordinates (Angstroms)
 Number     Number       Type             X           Y           Z
 ---------------------------------------------------------------------
      1          7           0        0.000000    0.000000    0.654711
      2          6           0        0.000000    0.000000   -0.502347
      3          1           0        0.000000    0.000000   -1.572793
 ---------------------------------------------------------------------
                    Distance matrix (angstroms):
                    1          2          3
     1  N    0.000000
     2  C    1.157058   0.000000
     3  H    2.227504   1.070446   0.000000
 Stoichiometry    CHN
 Framework group  C*V[C*(HCN)]
 Deg. of freedom     2
 Full point group                 C*V     NOp   4
 RotChk:  IX=0 Diff= 0.00D+00
 Largest Abelian subgroup         C2V     NOp   4
 Largest concise Abelian subgroup C1      NOp   1
                         Standard orientation:                         
 ---------------------------------------------------------------------
 Center     Atomic      Atomic             Coordinates (Angstroms)
 Number     Number       Type             X           Y           Z
 ---------------------------------------------------------------------
      1          7           0        0.000000    0.000000    0.654989
      2          6           0        0.000000    0.000000   -0.502069
      3          1           0        0.000000    0.000000   -1.572514
 ---------------------------------------------------------------------
 Rotational constants (GHZ):           0.0000000          44.1991091          44.1991091
 Leave Link  202 at Sat Oct 14 11:59:25 2017, MaxMem=  2684354560 cpu:               0.0 elap:               0.0
 (Enter /n/sw/g16_nehalem/g16/l601.exe)
 Copying SCF densities to generalized density rwf, IOpCl= 0 IROHF=0.

 **********************************************************************

            Population analysis using the SCF density.

 **********************************************************************

 Orbital symmetries:
       Occupied  (SG) (SG) (SG) (SG) (SG) (PI) (PI)
       Virtual   (PI) (PI) (SG) (SG) (PI) (PI) (SG) (SG) (PI) (PI)
                 (SG) (SG) (SG) (DLTA) (DLTA) (PI) (PI) (DLTA)
                 (DLTA) (PI) (PI) (SG) (SG) (SG) (SG)
 The electronic state is 1-SG.
 Alpha  occ. eigenvalues --  -14.36053 -10.24681  -0.91977  -0.60876  -0.38047
 Alpha  occ. eigenvalues --   -0.35915  -0.35915
 Alpha virt. eigenvalues --    0.02047   0.02047   0.08098   0.27770   0.51961
 Alpha virt. eigenvalues --    0.51961   0.63617   0.68982   0.77120   0.77120
 Alpha virt. eigenvalues --    0.81034   1.09220   1.43884   1.50627   1.50627
 Alpha virt. eigenvalues --    1.52880   1.52880   1.94931   1.94931   2.55168
 Alpha virt. eigenvalues --    2.55168   2.59936   2.97313   3.84774   4.09208
          Condensed to atoms (all electrons):
               1          2          3
     1  N    6.553473   0.840523  -0.035859
     2  C    0.840523   4.714912   0.335947
     3  H   -0.035859   0.335947   0.450392
 Mulliken charges:
               1
     1  N   -0.358137
     2  C    0.108618
     3  H    0.249520
 Sum of Mulliken charges =   0.00000
 Mulliken charges with hydrogens summed into heavy atoms:
               1
     1  N   -0.358137
     2  C    0.358137
 Electronic spatial extent (au):  <R**2>=             48.9965
 Charge=              0.0000 electrons
 Dipole moment (field-independent basis, Debye):
    X=              0.0000    Y=              0.0000    Z=             -2.9047  Tot=              2.9047
 Quadrupole moment (field-independent basis, Debye-Ang):
   XX=            -11.3955   YY=            -11.3955   ZZ=             -9.5446
   XY=              0.0000   XZ=              0.0000   YZ=              0.0000
 Traceless Quadrupole moment (field-independent basis, Debye-Ang):
   XX=             -0.6170   YY=             -0.6170   ZZ=              1.2340
   XY=              0.0000   XZ=              0.0000   YZ=              0.0000
 Octapole moment (field-independent basis, Debye-Ang**2):
  XXX=              0.0000  YYY=              0.0000  ZZZ=             -6.8631  XYY=              0.0000
  XXY=              0.0000  XXZ=             -0.1443  XZZ=              0.0000  YZZ=              0.0000
  YYZ=             -0.1443  XYZ=              0.0000
 Hexadecapole moment (field-independent basis, Debye-Ang**3):
 XXXX=            -10.3085 YYYY=            -10.3085 ZZZZ=            -35.0132 XXXY=              0.0000
 XXXZ=              0.0000 YYYX=              0.0000 YYYZ=              0.0000 ZZZX=              0.0000
 ZZZY=              0.0000 XXYY=             -3.4362 XXZZ=             -8.6440 YYZZ=             -8.6440
 XXYZ=              0.0000 YYXZ=              0.0000 ZZXY=              0.0000
 N-N= 2.383765209023D+01 E-N=-2.652489475091D+02  KE= 9.252810963051D+01
 Symmetry A1   KE= 8.688176889971D+01
 Symmetry A2   KE=-5.503362530810D-51
 Symmetry B1   KE= 2.823170365401D+00
 Symmetry B2   KE= 2.823170365401D+00
 There are a total of      177252 grid points.
 ElSum from          density=       13.9999999982
 ElSum from atomic densities=       13.9999999978
 Hirshfeld populations at iteration   1 (CA, CB, DipXYZ):
               1          2          3          4          5
     1  N    3.588974   3.588974   0.000000   0.000000  -0.055049
     2  C    2.975320   2.975320   0.000000   0.000000  -0.250524
     3  H    0.435706   0.435706   0.000000   0.000000  -0.188020
       Tot   7.000000   7.000000   0.000000   0.000000  -0.493593

 Dip from Atomic Chgs              0.000000   0.000000  -0.649205
         Total Dipole              0.000000   0.000000  -1.142798

 Hirshfeld charges, spin densities, dipoles, and CM5 charges using IRadAn=      7:
              Q-H        S-H        Dx         Dy         Dz        Q-CM5   
     1  N   -0.177949   0.000000   0.000000   0.000000  -0.055049  -0.304622
     2  C    0.049360   0.000000   0.000000   0.000000  -0.250524   0.116859
     3  H    0.128589   0.000000   0.000000   0.000000  -0.188020   0.187763
       Tot   0.000000   0.000000   0.000000   0.000000  -0.493593   0.000000
 Hirshfeld charges with hydrogens summed into heavy atoms:
              Q-H       Q-CM5   
     1  N   -0.177949  -0.304622
     2  C    0.177949   0.304622
 
 EQQ= 0.000000000000E+00 EQD= 0.000000000000E+00 EDD= 0.714872370741E-02
 EQQ+QD+DD= 0.714872370741E-02
 
 No NMR shielding tensors so no spin-rotation constants.
 Leave Link  601 at Sat Oct 14 11:59:25 2017, MaxMem=  2684354560 cpu:               1.8 elap:               0.2
 (Enter /n/sw/g16_nehalem/g16/l9999.exe)
 1\1\GINC-DAE14\FOpt\RB3LYP\6-31G(d)\C1H1N1\ROOT\14-Oct-2017\0\\#p opt=
 verytight int=superfinegrid freq=noraman pop=cm5 b3lyp 6-31g*\\title\\
 0,1\N,0.,0.,0.6547112322\C,0.,0.,-0.502346637\H,0.,0.,-1.5727925952\\V
 ersion=ES64L-G16RevA.03\State=1-SG\HF=-93.4226175\RMSD=1.816e-09\RMSF=
 1.330e-07\Dipole=0.,0.,-1.1427984\Quadrupole=-0.4587116,-0.4587116,0.9
 174232,0.,0.,0.\PG=C*V [C*(H1C1N1)]\\@


 A MATHEMATICIAN IS A MACHINE FOR TURNING COFFEE INTO THEOREMS.
     -- QUOTED BY PAUL ERDOS
 Leave Link 9999 at Sat Oct 14 11:59:26 2017, MaxMem=  2684354560 cpu:               0.3 elap:               0.0
 Job cpu time:       0 days  0 hours  0 minutes 47.2 seconds.
 Elapsed time:       0 days  0 hours  0 minutes  6.0 seconds.
 File lengths (MBytes):  RWF=      6 Int=      0 D2E=      0 Chk=      1 Scr=      1
 Normal termination of Gaussian 16 at Sat Oct 14 11:59:26 2017.
 (Enter /n/sw/g16_nehalem/g16/l1.exe)
 Link1:  Proceeding to internal job step number  2.
 --------------------------------------------------------------------
 #P Geom=AllCheck Guess=TCheck SCRF=Check GenChk RB3LYP/6-31G(d) Freq
 --------------------------------------------------------------------
 1/7=1,10=4,29=7,30=1,38=1,40=1/1,3;
 2/12=2,40=1/2;
 3/5=1,6=6,7=1,11=2,14=-4,25=1,30=1,70=2,71=2,74=-5,75=-7,116=1,140=1/1,2,3;
 4/5=101/1;
 5/5=2,38=6,98=1/2;
 8/6=4,10=90,11=11/1;
 11/6=1,8=1,9=11,15=111,16=1/1,2,10;
 10/6=1/2;
 6/7=2,8=2,9=2,10=2,28=1,79=1/1;
 7/8=1,10=1,25=1/1,2,3,16;
 1/7=1,10=4,30=1/3;
 99//99;
 Leave Link    1 at Sat Oct 14 11:59:26 2017, MaxMem=  2684354560 cpu:               0.3 elap:               0.0
 (Enter /n/sw/g16_nehalem/g16/l101.exe)
 Structure from the checkpoint file:  "/scratch/Gau-18207.chk"
 -----
 title
 -----
 Charge =  0 Multiplicity = 1
 Redundant internal coordinates found in file.  (old form).
 N,0,0.,0.,0.6547112322
 C,0,0.,0.,-0.502346637
 H,0,0.,0.,-1.5727925952
 Recover connectivity data from disk.
 ITRead=  0  0  0
 MicOpt= -1 -1 -1
 NAtoms=      3 NQM=        3 NQMF=       0 NMMI=      0 NMMIF=      0
                NMic=       0 NMicF=      0.
                    Isotopes and Nuclear Properties:
 (Nuclear quadrupole moments (NQMom) in fm**2, nuclear magnetic moments (NMagM)
  in nuclear magnetons)

  Atom         1           2           3
 IAtWgt=          14          12           1
 AtmWgt=  14.0030740  12.0000000   1.0078250
 NucSpn=           2           0           1
 AtZEff=   4.5500000   3.6000000   1.0000000
 NQMom=    2.0440000   0.0000000   0.0000000
 NMagM=    0.4037610   0.0000000   2.7928460
 AtZNuc=   7.0000000   6.0000000   1.0000000
 Leave Link  101 at Sat Oct 14 11:59:26 2017, MaxMem=  2684354560 cpu:               4.9 elap:               0.6
 (Enter /n/sw/g16_nehalem/g16/l103.exe)

 GradGradGradGradGradGradGradGradGradGradGradGradGradGradGradGradGradGrad
 Berny optimization.
 Initialization pass.
                           ----------------------------
                           !    Initial Parameters    !
                           ! (Angstroms and Degrees)  !
 --------------------------                            --------------------------
 ! Name  Definition              Value          Derivative Info.                !
 --------------------------------------------------------------------------------
 ! R1    R(1,2)                  1.1571         calculate D2E/DX2 analytically  !
 ! R2    R(2,3)                  1.0704         calculate D2E/DX2 analytically  !
 ! A1    L(1,2,3,-1,-1)        180.0            calculate D2E/DX2 analytically  !
 ! A2    L(1,2,3,-2,-2)        180.0            calculate D2E/DX2 analytically  !
 --------------------------------------------------------------------------------
 Trust Radius=3.00D-01 FncErr=1.00D-07 GrdErr=1.00D-07 EigMax=2.50D+02 EigMin=1.00D-04
 Number of steps in this run=      2 maximum allowed number of steps=      2.
 GradGradGradGradGradGradGradGradGradGradGradGradGradGradGradGradGradGrad

 Leave Link  103 at Sat Oct 14 11:59:26 2017, MaxMem=  2684354560 cpu:               0.1 elap:               0.0
 (Enter /n/sw/g16_nehalem/g16/l202.exe)
                          Input orientation:                          
 ---------------------------------------------------------------------
 Center     Atomic      Atomic             Coordinates (Angstroms)
 Number     Number       Type             X           Y           Z
 ---------------------------------------------------------------------
      1          7           0        0.000000    0.000000    0.654711
      2          6           0        0.000000    0.000000   -0.502347
      3          1           0        0.000000    0.000000   -1.572793
 ---------------------------------------------------------------------
                    Distance matrix (angstroms):
                    1          2          3
     1  N    0.000000
     2  C    1.157058   0.000000
     3  H    2.227504   1.070446   0.000000
 Stoichiometry    CHN
 Framework group  C*V[C*(HCN)]
 Deg. of freedom     2
 Full point group                 C*V     NOp   4
 RotChk:  IX=0 Diff= 0.00D+00
 Largest Abelian subgroup         C2V     NOp   4
 Largest concise Abelian subgroup C1      NOp   1
                         Standard orientation:                         
 ---------------------------------------------------------------------
 Center     Atomic      Atomic             Coordinates (Angstroms)
 Number     Number       Type             X           Y           Z
 ---------------------------------------------------------------------
      1          7           0        0.000000    0.000000    0.654989
      2          6           0        0.000000    0.000000   -0.502069
      3          1           0        0.000000    0.000000   -1.572514
 ---------------------------------------------------------------------
 Rotational constants (GHZ):           0.0000000          44.1991091          44.1991091
 Leave Link  202 at Sat Oct 14 11:59:26 2017, MaxMem=  2684354560 cpu:               0.0 elap:               0.0
 (Enter /n/sw/g16_nehalem/g16/l301.exe)
 Standard basis: 6-31G(d) (6D, 7F)
 Ernie: Thresh=  0.10000D-02 Tol=  0.10000D-05 Strict=F.
 There are    18 symmetry adapted cartesian basis functions of A1  symmetry.
 There are     2 symmetry adapted cartesian basis functions of A2  symmetry.
 There are     6 symmetry adapted cartesian basis functions of B1  symmetry.
 There are     6 symmetry adapted cartesian basis functions of B2  symmetry.
 There are    18 symmetry adapted basis functions of A1  symmetry.
 There are     2 symmetry adapted basis functions of A2  symmetry.
 There are     6 symmetry adapted basis functions of B1  symmetry.
 There are     6 symmetry adapted basis functions of B2  symmetry.
    32 basis functions,    60 primitive gaussians,    32 cartesian basis functions
     7 alpha electrons        7 beta electrons
       nuclear repulsion energy        23.8376520902 Hartrees.
 IExCor=  402 DFT=T Ex+Corr=B3LYP ExCW=0 ScaHFX=  0.200000
 ScaDFX=  0.800000  0.720000  1.000000  0.810000 ScalE2=  1.000000  1.000000
 IRadAn=      7 IRanWt=     -1 IRanGd=            0 ICorTp=0 IEmpDi=  4
 NAtoms=    3 NActive=    3 NUniq=    3 SFac= 1.00D+00 NAtFMM=   60 NAOKFM=F Big=F
 Integral buffers will be    131072 words long.
 Raffenetti 2 integral format.
 Two-electron integral symmetry is turned on.
 Leave Link  301 at Sat Oct 14 11:59:26 2017, MaxMem=  2684354560 cpu:               0.5 elap:               0.1
 (Enter /n/sw/g16_nehalem/g16/l302.exe)
 NPDir=0 NMtPBC=     1 NCelOv=     1 NCel=       1 NClECP=     1 NCelD=      1
         NCelK=      1 NCelE2=     1 NClLst=     1 CellRange=     0.0.
 One-electron integrals computed using PRISM.
 One-electron integral symmetry used in STVInt
 NBasis=    32 RedAO= T EigKep=  3.00D-03  NBF=    18     2     6     6
 NBsUse=    32 1.00D-06 EigRej= -1.00D+00 NBFU=    18     2     6     6
 Precomputing XC quadrature grid using
 IXCGrd= 4 IRadAn=           7 IRanWt=          -1 IRanGd=           0 AccXCQ= 0.00D+00.
 Generated NRdTot=       0 NPtTot=           0 NUsed=           0 NTot=          32
 NSgBfM=    32    32    32    32    32 MxSgAt=     3 MxSgA2=     3.
 Leave Link  302 at Sat Oct 14 11:59:27 2017, MaxMem=  2684354560 cpu:               1.5 elap:               0.2
 (Enter /n/sw/g16_nehalem/g16/l303.exe)
 DipDrv:  MaxL=1.
 Leave Link  303 at Sat Oct 14 11:59:27 2017, MaxMem=  2684354560 cpu:               0.2 elap:               0.0
 (Enter /n/sw/g16_nehalem/g16/l401.exe)
 Initial guess from the checkpoint file:  "/scratch/Gau-18207.chk"
 B after Tr=     0.000000    0.000000    0.000000
         Rot=    1.000000    0.000000    0.000000    0.000000 Ang=   0.00 deg.
 Guess basis will be translated and rotated to current coordinates.
 JPrj=2 DoOrth=T DoCkMO=T.
 Initial guess orbital symmetries:
       Occupied  (SG) (SG) (SG) (SG) (SG) (PI) (PI)
       Virtual   (PI) (PI) (SG) (SG) (PI) (PI) (SG) (SG) (PI) (PI)
                 (SG) (SG) (SG) (DLTA) (DLTA) (PI) (PI) (DLTA)
                 (DLTA) (PI) (PI) (SG) (SG) (SG) (SG)
 The electronic state of the initial guess is 1-SG.
 Leave Link  401 at Sat Oct 14 11:59:27 2017, MaxMem=  2684354560 cpu:               0.8 elap:               0.1
 (Enter /n/sw/g16_nehalem/g16/l502.exe)
 Keep R1 ints in memory in symmetry-blocked form, NReq=7073427.
 FoFCou: FMM=F IPFlag=           0 FMFlag=           0 FMFlg1=           0
         NFxFlg=           0 DoJE=F BraDBF=F KetDBF=F FulRan=T
         wScrn=  0.000000 ICntrl=       600 IOpCl=  0 I1Cent=           0 NGrid=           0
         NMat0=    1 NMatS0=    528 NMatT0=    0 NMatD0=    1 NMtDS0=    0 NMtDT0=    0
 Petite list used in FoFCou.
 Closed shell SCF:
 Using DIIS extrapolation, IDIIS=  1040.
 NGot=  2684354560 LenX=  2684308775 LenY=  2684307310
 Requested convergence on RMS density matrix=1.00D-08 within 128 cycles.
 Requested convergence on MAX density matrix=1.00D-06.
 Requested convergence on             energy=1.00D-06.
 No special actions if energy rises.

 Cycle   1  Pass 1  IDiag  1:
 E= -93.4226175328007    
 DIIS: error= 4.50D-10 at cycle   1 NSaved=   1.
 NSaved= 1 IEnMin= 1 EnMin= -93.4226175328007     IErMin= 1 ErrMin= 4.50D-10
 ErrMax= 4.50D-10  0.00D+00 EMaxC= 1.00D-01 BMatC= 5.64D-18 BMatP= 5.64D-18
 IDIUse=1 WtCom= 1.00D+00 WtEn= 0.00D+00
 Coeff-Com:  0.100D+01
 Coeff:      0.100D+01
 Gap=     0.380 Goal=   None    Shift=    0.000
 RMSDP=1.51D-10 MaxDP=1.35D-09              OVMax= 2.52D-09

 SCF Done:  E(RB3LYP) =  -93.4226175328     A.U. after    1 cycles
            NFock=  1  Conv=0.15D-09     -V/T= 2.0097
 KE= 9.252810963744D+01 PE=-2.652489475160D+02 EE= 5.546056825551D+01
 Leave Link  502 at Sat Oct 14 11:59:27 2017, MaxMem=  2684354560 cpu:               2.0 elap:               0.3
 (Enter /n/sw/g16_nehalem/g16/l801.exe)
 DoSCS=F DFT=T ScalE2(SS,OS)=  1.000000  1.000000
 Range of M.O.s used for correlation:     1    32
 NBasis=    32 NAE=     7 NBE=     7 NFC=     0 NFV=     0
 NROrb=     32 NOA=     7 NOB=     7 NVA=    25 NVB=    25
 Leave Link  801 at Sat Oct 14 11:59:27 2017, MaxMem=  2684354560 cpu:               0.3 elap:               0.0
 (Enter /n/sw/g16_nehalem/g16/l1101.exe)
 Using compressed storage, NAtomX=     3.
 Will process      4 centers per pass.
 Leave Link 1101 at Sat Oct 14 11:59:27 2017, MaxMem=  2684354560 cpu:               1.6 elap:               0.2
 (Enter /n/sw/g16_nehalem/g16/l1102.exe)
 Symmetrizing basis deriv contribution to polar:
 IMax=3 JMax=2 DiffMx= 0.00D+00
 Leave Link 1102 at Sat Oct 14 11:59:27 2017, MaxMem=  2684354560 cpu:               0.2 elap:               0.0
 (Enter /n/sw/g16_nehalem/g16/l1110.exe)
 Forming Gx(P) for the SCF density, NAtomX=     3.
 Integral derivatives from FoFJK, PRISM(SPDF).
 Do as many integral derivatives as possible in FoFJK.
 G2DrvN: MDV=    2684354220.
 G2DrvN: will do     4 centers at a time, making    1 passes.
 Calling FoFCou, ICntrl=  3107 FMM=F I1Cent=   0 AccDes= 0.00D+00.
 FoFJK:  IHMeth= 1 ICntrl=    3107 DoSepK=F KAlg= 0 I1Cent=           0 FoldK=F
 IRaf=         0 NMat=       1 IRICut=       1 DoRegI=T DoRafI=F ISym2E= 1 IDoP0=0 IntGTp=1.
 FoFCou: FMM=F IPFlag=           0 FMFlag=      100000 FMFlg1=           0
         NFxFlg=           0 DoJE=F BraDBF=F KetDBF=F FulRan=T
         wScrn=  0.000000 ICntrl=      3107 IOpCl=  0 I1Cent=           0 NGrid=           0
         NMat0=    1 NMatS0=      1 NMatT0=    0 NMatD0=    1 NMtDS0=    0 NMtDT0=    0
 Petite list used in FoFCou.
 End of G2Drv F.D. properties file   721 does not exist.
 End of G2Drv F.D. properties file   722 does not exist.
 End of G2Drv F.D. properties file   788 does not exist.
 Leave Link 1110 at Sat Oct 14 11:59:28 2017, MaxMem=  2684354560 cpu:               3.9 elap:               0.5
 (Enter /n/sw/g16_nehalem/g16/l1002.exe)
 Minotr:  Closed shell wavefunction.
          IDoAtm=111
          Direct CPHF calculation.
          Differentiating once with respect to electric field.
                with respect to dipole field.
          Differentiating once with respect to nuclear coordinates.
          Using symmetry in CPHF.
          Requested convergence is 1.0D-08 RMS, and 1.0D-07 maximum.
          Secondary convergence is 1.0D-12 RMS, and 1.0D-12 maximum.
          NewPWx=T KeepS1=F KeepF1=F KeepIn=T MapXYZ=F SortEE=F KeepMc=T.
         1287 words used for storage of precomputed grid.
 Keep R1 ints in memory in symmetry-blocked form, NReq=7025323.
 FoFCou: FMM=F IPFlag=           0 FMFlag=           0 FMFlg1=           0
         NFxFlg=           0 DoJE=F BraDBF=F KetDBF=F FulRan=T
[...]
 N-N= 2.383765209023D+01 E-N=-2.652489475244D+02  KE= 9.252810963744D+01
 Symmetry A1   KE= 8.688176889948D+01
 Symmetry A2   KE= 0.000000000000D+00
 Symmetry B1   KE= 2.823170368981D+00
 Symmetry B2   KE= 2.823170368981D+00
 There are a total of      177252 grid points.
 ElSum from          density=       13.9999999982
 ElSum from atomic densities=       13.9999999978
 Hirshfeld populations at iteration   1 (CA, CB, DipXYZ):
               1          2          3          4          5
     1  N    3.588974   3.588974   0.000000   0.000000  -0.055049
     2  C    2.975320   2.975320   0.000000   0.000000  -0.250524
     3  H    0.435706   0.435706   0.000000   0.000000  -0.188020
       Tot   7.000000   7.000000   0.000000   0.000000  -0.493593

 Dip from Atomic Chgs              0.000000   0.000000  -0.649205
         Total Dipole              0.000000   0.000000  -1.142798

 Hirshfeld charges, spin densities, dipoles, and CM5 charges using IRadAn=      7:
              Q-H        S-H        Dx         Dy         Dz        Q-CM5   
     1  N   -0.177949   0.000000   0.000000   0.000000  -0.055049  -0.304622
     2  C    0.049360   0.000000   0.000000   0.000000  -0.250524   0.116859
     3  H    0.128589   0.000000   0.000000   0.000000  -0.188020   0.187763
       Tot   0.000000   0.000000   0.000000   0.000000  -0.493593   0.000000
 Hirshfeld charges with hydrogens summed into heavy atoms:
              Q-H       Q-CM5   
     1  N   -0.177949  -0.304622
     2  C    0.177949   0.304622
 
 EQQ= 0.000000000000E+00 EQD= 0.000000000000E+00 EDD= 0.714872380988E-02
 EQQ+QD+DD= 0.714872380988E-02
 
  Exact polarizability:   7.722   0.000   7.722   0.000   0.000  19.874
 Approx polarizability:  10.023   0.000  10.023   0.000   0.000  38.630
 No NMR shielding tensors so no spin-rotation constants.
 Leave Link  601 at Sat Oct 14 11:59:29 2017, MaxMem=  2684354560 cpu:               1.8 elap:               0.2
 (Enter /n/sw/g16_nehalem/g16/l701.exe)
 ... and contract with generalized density number  0.
 Compute integral second derivatives.
 Leave Link  701 at Sat Oct 14 11:59:29 2017, MaxMem=  2684354560 cpu:               1.5 elap:               0.2
 (Enter /n/sw/g16_nehalem/g16/l702.exe)
 L702 exits ... SP integral derivatives will be done elsewhere.
 Leave Link  702 at Sat Oct 14 11:59:29 2017, MaxMem=  2684354560 cpu:               0.2 elap:               0.0
 (Enter /n/sw/g16_nehalem/g16/l703.exe)
 Integral derivatives from FoFJK, PRISM(SPDF).
 Compute integral second derivatives, UseDBF=F ICtDFT=           0.
 Calling FoFJK, ICntrl=    100127 FMM=F ISym2X=1 I1Cent= 0 IOpClX= 0 NMat=1 NMatS=1 NMatT=0.
 FoFJK:  IHMeth= 1 ICntrl=  100127 DoSepK=F KAlg= 0 I1Cent=           0 FoldK=F
 IRaf=         0 NMat=       1 IRICut=       1 DoRegI=T DoRafI=F ISym2E= 1 IDoP0=0 IntGTp=1.
 FoFCou: FMM=F IPFlag=           0 FMFlag=      100000 FMFlg1=         800
         NFxFlg=           0 DoJE=F BraDBF=F KetDBF=F FulRan=T
         wScrn=  0.000000 ICntrl=    100127 IOpCl=  0 I1Cent=           0 NGrid=           0
         NMat0=    1 NMatS0=      1 NMatT0=    0 NMatD0=    1 NMtDS0=    0 NMtDT0=    0
 Petite list used in FoFCou.
 Leave Link  703 at Sat Oct 14 11:59:30 2017, MaxMem=  2684354560 cpu:               6.3 elap:               0.8
 (Enter /n/sw/g16_nehalem/g16/l716.exe)
 Dipole        = 0.00000000D+00 0.00000000D+00-1.14279839D+00
 Polarizability= 7.72174422D+00-1.08756615D-22 7.72174422D+00
                -5.26129480D-14 1.86641016D-12 1.98735977D+01
 Full mass-weighted force constant matrix:
 Low frequencies ---   -0.0010   -0.0008   -0.0008    0.4946    0.4946  766.4932
 Low frequencies ---  766.4932 2213.7461 3481.0352
 Diagonal vibrational polarizability:
        1.6261736       1.6261736       0.1273554
 Harmonic frequencies (cm**-1), IR intensities (KM/Mole), Raman scattering
 activities (A**4/AMU), depolarization ratios for plane and unpolarized
 incident light, reduced masses (AMU), force constants (mDyne/A),
 and normal coordinates:
                      1                      2                      3
                     PI                     PI                     SG
 Frequencies --    766.4932               766.4932              2213.7461
 Red. masses --      1.3426                 1.3426                 5.1181
 Frc consts  --      0.4647                 0.4647                14.7781
 IR Inten    --     35.5018                35.5018                 1.9681
  Atom  AN      X      Y      Z        X      Y      Z        X      Y      Z
     1   7     0.07   0.00   0.00     0.00   0.07   0.00     0.00   0.00   0.41
     2   6    -0.16   0.00   0.00     0.00  -0.16   0.00     0.00   0.00  -0.41
     3   1     0.99   0.00   0.00     0.00   0.99   0.00     0.00   0.00  -0.81
                      4
                     SG
 Frequencies --   3481.0352
 Red. masses --      1.1897
 Frc consts  --      8.4940
 IR Inten    --     52.4794
  Atom  AN      X      Y      Z
     1   7     0.00   0.00   0.03
     2   6     0.00   0.00  -0.12
     3   1     0.00   0.00   0.99

 -------------------
 - Thermochemistry -
 -------------------
 Temperature   298.150 Kelvin.  Pressure   1.00000 Atm.
 Atom     1 has atomic number  7 and mass  14.00307
 Atom     2 has atomic number  6 and mass  12.00000
 Atom     3 has atomic number  1 and mass   1.00783
 Molecular mass:    27.01090 amu.
 Principal axes and moments of inertia in atomic units:
                           1         2         3
     Eigenvalues --     0.00000  40.83207  40.83207
           X            0.00000   0.00000   1.00000
           Y            0.00000   1.00000   0.00000
           Z            1.00000   0.00000   0.00000
 This molecule is a prolate symmetric top.
 Rotational symmetry number  1.
 Rotational temperature (Kelvin)      2.12122
 Rotational constant (GHZ):          44.199109
 Zero-point vibrational energy      43231.7 (Joules/Mol)
                                   10.33261 (Kcal/Mol)
 Vibrational temperatures:   1102.81  1102.81  3185.09  5008.43
          (Kelvin)
 
 Zero-point correction=                           0.016466 (Hartree/Particle)
 Thermal correction to Energy=                    0.019004
 Thermal correction to Enthalpy=                  0.019948
 Thermal correction to Gibbs Free Energy=        -0.002908
 Sum of electronic and zero-point Energies=            -93.406151
 Sum of electronic and thermal Energies=               -93.403613
 Sum of electronic and thermal Enthalpies=             -93.402669
 Sum of electronic and thermal Free Energies=          -93.425525
 
                     E (Thermal)             CV                S
                      KCal/Mol        Cal/Mol-Kelvin    Cal/Mol-Kelvin
 Total                   11.925              6.388             48.105
 Electronic               0.000              0.000              0.000
 Translational            0.889              2.981             35.816
 Rotational               0.592              1.987             11.815
 Vibrational             10.444              1.420              0.473
                       Q            Log10(Q)             Ln(Q)
 Total Bot       0.217537D+02          1.337533          3.079783
 Total V=0       0.815438D+09          8.911391         20.519235
 Vib (Bot)       0.280493D-07         -7.552078        -17.389303
 Vib (V=0)       0.105143D+01          0.021780          0.050150
 Electronic      0.100000D+01          0.000000          0.000000
 Translational   0.551776D+07          6.741762         15.523482
 Rotational      0.140556D+03          2.147849          4.945604
 
                                                                title
                                                             IR Spectrum
 
     3                                              2                                                                                
     4                                              2                                                    7                           
     8                                              1                                                    6                           
     1                                              4                                                    6                           
 
     X                                              X                                                    X                           
     X                                                                                                   X                           
     X                                                                                                   X                           
     X                                                                                                   X                           
     X                                                                                                   X                           
     X                                                                                                   X                           
     X                                                                                                   X                           
     X                                                                                                   X                           
     X                                                                                                   X                           
     X                                                                                                   X                           
     X                                                                                                   X                           
     X                                                                                                   X                           
     X                                                                                                   X                           
     X                                                                                                   X                           
     X                                                                                                   X                           
                                                                                                         X                           
                                                                                                         X                           
                                                                                                         X                           
                                                                                                         X                           
                                                                                                         X                           
 
 ***** Axes restored to original set *****
 -------------------------------------------------------------------
 Center     Atomic                   Forces (Hartrees/Bohr)
 Number     Number              X              Y              Z
 -------------------------------------------------------------------
      1        7           0.000000000    0.000000000    0.000000006
      2        6           0.000000000    0.000000000   -0.000000285
      3        1           0.000000000    0.000000000    0.000000279
 -------------------------------------------------------------------
 Cartesian Forces:  Max     0.000000285 RMS     0.000000133
 Force constants in Cartesian coordinates: 
                1             2             3             4             5 
      1  0.139694D-01
      2  0.000000D+00  0.139694D-01
      3  0.000000D+00  0.000000D+00  0.130318D+01
      4 -0.290692D-01  0.000000D+00  0.000000D+00  0.604907D-01
      5  0.000000D+00 -0.290692D-01  0.000000D+00  0.000000D+00  0.604907D-01
      6  0.000000D+00  0.000000D+00 -0.131605D+01  0.000000D+00  0.000000D+00
      7  0.150998D-01  0.000000D+00  0.000000D+00 -0.314215D-01  0.000000D+00
      8  0.000000D+00  0.150998D-01  0.000000D+00  0.000000D+00 -0.314215D-01
      9  0.000000D+00  0.000000D+00  0.128653D-01  0.000000D+00  0.000000D+00
                6             7             8             9 
      6  0.173821D+01
      7  0.000000D+00  0.163218D-01
      8  0.000000D+00  0.000000D+00  0.163218D-01
      9 -0.422160D+00  0.000000D+00  0.000000D+00  0.409295D+00
 FormGI is forming the generalized inverse of G from B-inverse, IUseBI=4.
 Force constants in internal coordinates: 
                1             2             3             4 
      1  0.130318D+01
      2 -0.128653D-01  0.409295D+00
      3  0.000000D+00  0.000000D+00  0.667864D-01
      4  0.000000D+00  0.000000D+00  0.000000D+00  0.667864D-01
 Leave Link  716 at Sat Oct 14 11:59:30 2017, MaxMem=  2684354560 cpu:               0.3 elap:               0.0
 (Enter /n/sw/g16_nehalem/g16/l103.exe)

 GradGradGradGradGradGradGradGradGradGradGradGradGradGradGradGradGradGrad
 Berny optimization.
 Red2BG is reusing G-inverse.
 Internal  Forces:  Max     0.000000279 RMS     0.000000140
 Search for a local minimum.
 Step number   1 out of a maximum of    2
 All quantities printed in internal units (Hartrees-Bohrs-Radians)
 Second derivative matrix not updated -- analytic derivatives used.
 The second derivative matrix:
                          R1        R2        A1        A2
           R1           1.30318
           R2          -0.01287   0.40929
           A1           0.00000   0.00000   0.06679
           A2           0.00000   0.00000   0.00000   0.06679
 ITU=  0
     Eigenvalues ---    0.06679   0.06679   0.40911   1.30337
 Angle between quadratic step and forces=  90.00 degrees.
 Linear search not attempted -- first point.
 Iteration  1 RMS(Cart)=  0.00000028 RMS(Int)=  0.00000000
 ITry= 1 IFail=0 DXMaxC= 4.56D-07 DCOld= 1.00D+10 DXMaxT= 3.00D-01 DXLimC= 3.00D+00 Rises=F
 ClnCor:  largest displacement from symmetrization is 0.00D+00 for atom     0.
 Variable       Old X    -DE/DX   Delta X   Delta X   Delta X     New X
                                 (Linear)    (Quad)   (Total)
    R1        2.18652   0.00000   0.00000   0.00000   0.00000   2.18652
    R2        2.02285   0.00000   0.00000   0.00000   0.00000   2.02285
    A1        3.14159   0.00000   0.00000   0.00000   0.00000   3.14159
    A2        3.14159   0.00000   0.00000   0.00000   0.00000   3.14159
         Item               Value     Threshold  Converged?
 Maximum Force            0.000000     0.000002     YES
 RMS     Force            0.000000     0.000001     YES
 Maximum Displacement     0.000000     0.000006     YES
 RMS     Displacement     0.000000     0.000004     YES
 Predicted change in Energy=-9.534413D-14
 Optimization completed.
    -- Stationary point found.
                           ----------------------------
                           !   Optimized Parameters   !
                           ! (Angstroms and Degrees)  !
 --------------------------                            --------------------------
 ! Name  Definition              Value          Derivative Info.                !
 --------------------------------------------------------------------------------
 ! R1    R(1,2)                  1.1571         -DE/DX =    0.0                 !
 ! R2    R(2,3)                  1.0704         -DE/DX =    0.0                 !
 ! A1    L(1,2,3,-1,-1)        180.0            -DE/DX =    0.0                 !
 ! A2    L(1,2,3,-2,-2)        180.0            -DE/DX =    0.0                 !
 --------------------------------------------------------------------------------
 GradGradGradGradGradGradGradGradGradGradGradGradGradGradGradGradGradGrad

 Leave Link  103 at Sat Oct 14 11:59:30 2017, MaxMem=  2684354560 cpu:               0.0 elap:               0.0
 (Enter /n/sw/g16_nehalem/g16/l9999.exe)

 ----------------------------------------------------------------------

 Electric dipole moment (input orientation):
 (Debye = 10**-18 statcoulomb cm , SI units = C m)
                  (au)            (Debye)         (10**-30 SI)
   Tot        0.114280D+01      0.290470D+01      0.968905D+01
   x          0.000000D+00      0.000000D+00      0.000000D+00
   y          0.000000D+00      0.000000D+00      0.000000D+00
   z         -0.114280D+01     -0.290470D+01     -0.968905D+01

 Dipole polarizability, Alpha (input orientation).
 (esu units = cm**3 , SI units = C**2 m**2 J**-1)
 Alpha(0;0):
               (au)            (10**-24 esu)      (10**-40 SI)
   iso        0.117724D+02      0.174448D+01      0.194100D+01
   aniso      0.121519D+02      0.180072D+01      0.200357D+01
   xx         0.772174D+01      0.114424D+01      0.127314D+01
   yx         0.000000D+00      0.000000D+00      0.000000D+00
   yy         0.772174D+01      0.114424D+01      0.127314D+01
   zx         0.000000D+00      0.000000D+00      0.000000D+00
   zy         0.000000D+00      0.000000D+00      0.000000D+00
   zz         0.198736D+02      0.294496D+01      0.327671D+01

 ----------------------------------------------------------------------

 Dipole orientation:
     7          0.00000000          0.00000000         -1.23722492
     6          0.00000000          0.00000000          0.94929756
     1          0.00000000          0.00000000          2.97214726

 Electric dipole moment (dipole orientation):
 (Debye = 10**-18 statcoulomb cm , SI units = C m)
                  (au)            (Debye)         (10**-30 SI)
   Tot        0.114280D+01      0.290470D+01      0.968905D+01
   x          0.000000D+00      0.000000D+00      0.000000D+00
   y          0.000000D+00      0.000000D+00      0.000000D+00
   z          0.114280D+01      0.290470D+01      0.968905D+01

 Dipole polarizability, Alpha (dipole orientation).
 (esu units = cm**3 , SI units = C**2 m**2 J**-1)
 Alpha(0;0):
               (au)            (10**-24 esu)      (10**-40 SI)
   iso        0.117724D+02      0.174448D+01      0.194100D+01
   aniso      0.121519D+02      0.180072D+01      0.200357D+01
   xx         0.772174D+01      0.114424D+01      0.127314D+01
   yx         0.000000D+00      0.000000D+00      0.000000D+00
   yy         0.772174D+01      0.114424D+01      0.127314D+01
   zx         0.000000D+00      0.000000D+00      0.000000D+00
   zy         0.000000D+00      0.000000D+00      0.000000D+00
   zz         0.198736D+02      0.294496D+01      0.327671D+01

 ----------------------------------------------------------------------
 1\1\GINC-DAE14\Freq\RB3LYP\6-31G(d)\C1H1N1\ROOT\14-Oct-2017\0\\#P Geom
 =AllCheck Guess=TCheck SCRF=Check GenChk RB3LYP/6-31G(d) Freq\\title\\
 0,1\N,0.,0.,0.6547112322\C,0.,0.,-0.502346637\H,0.,0.,-1.5727925952\\V
 ersion=ES64L-G16RevA.03\State=1-SG\HF=-93.4226175\RMSD=1.509e-10\RMSF=
 1.331e-07\ZeroPoint=0.0164661\Thermal=0.019004\Dipole=0.,0.,-1.1427984
 \DipoleDeriv=-0.2909932,0.,0.,0.,-0.2909932,0.,0.,0.,-0.013249,0.04058
 66,0.,0.,0.,0.0405866,0.,0.,0.,-0.2155981,0.2504066,0.,0.,0.,0.2504066
 ,0.,0.,0.,0.2288471\Polar=7.7217442,0.,7.7217442,0.,0.,19.8735977\Quad
 rupole=-0.4587116,-0.4587116,0.9174232,0.,0.,0.\PG=C*V [C*(H1C1N1)]\NI
 mag=0\\0.01396937,0.,0.01396937,0.,0.,1.30318010,-0.02906915,0.,0.,0.0
 6049069,0.,-0.02906915,0.,0.,0.06049069,0.,0.,-1.31604535,0.,0.,1.7382
 0558,0.01509978,0.,0.,-0.03142154,0.,0.,0.01632176,0.,0.01509978,0.,0.
 ,-0.03142154,0.,0.,0.01632176,0.,0.,0.01286525,0.,0.,-0.42216023,0.,0.
 ,0.40929498\\0.,0.,0.,0.,0.,0.00000029,0.,0.,-0.00000028\\\@


 Statistics are no substitute for judgment.
                            -- Henry Clay
 Job cpu time:       0 days  0 hours  0 minutes 33.4 seconds.
 Elapsed time:       0 days  0 hours  0 minutes  4.2 seconds.
 File lengths (MBytes):  RWF=      6 Int=      0 D2E=      0 Chk=      1 Scr=      1
 Normal termination of Gaussian 16 at Sat Oct 14 11:59:30 2017.
