 Entering Gaussian System, Link 0=g16
 Input=stephan-addition_ts-b3lyp_631gd-gas.gjf
 Output=stephan-addition_ts-b3lyp_631gd-gas.out
 Initial command:
 /n/sw/g16_nehalem/g16/l1.exe "/scratch/Gau-156652.inp" -scrdir="/scratch/"
 Entering Link 1 = /n/sw/g16_nehalem/g16/l1.exe PID=    156653.
  
 Copyright (c) 1988,1990,1992,1993,1995,1998,2003,2009,2016,
            Gaussian, Inc.  All Rights Reserved.
  
 This is part of the Gaussian(R) 16 program.  It is based on
 the Gaussian(R) 09 system (copyright 2009, Gaussian, Inc.),
 the Gaussian(R) 03 system (copyright 2003, Gaussian, Inc.),
 the Gaussian(R) 98 system (copyright 1998, Gaussian, Inc.),
 the Gaussian(R) 94 system (copyright 1995, Gaussian, Inc.),
 the Gaussian 92(TM) system (copyright 1992, Gaussian, Inc.),
 the Gaussian 90(TM) system (copyright 1990, Gaussian, Inc.),
 the Gaussian 88(TM) system (copyright 1988, Gaussian, Inc.),
 the Gaussian 86(TM) system (copyright 1986, Carnegie Mellon
 University), and the Gaussian 82(TM) system (copyright 1983,
 Carnegie Mellon University). Gaussian is a federally registered
 trademark of Gaussian, Inc.
  
 This software contains proprietary and confidential information,
 including trade secrets, belonging to Gaussian, Inc.
  
 This software is provided under written license and may be
 used, copied, transmitted, or stored only in accord with that
 written license.
  
 The following legend is applicable only to US Government
 contracts under FAR:
  
                    RESTRICTED RIGHTS LEGEND
  
 Use, reproduction and disclosure by the US Government is
 subject to restrictions as set forth in subparagraphs (a)
 and (c) of the Commercial Computer Software - Restricted
 Rights clause in FAR 52.227-19.
  
 Gaussian, Inc.
 340 Quinnipiac St., Bldg. 40, Wallingford CT 06492
  
  
 ---------------------------------------------------------------
 Warning -- This program may not be used in any manner that
 competes with the business of Gaussian, Inc. or will provide
 assistance to any competitor of Gaussian, Inc.  The licensee
 of this program is prohibited from giving any competitor of
 Gaussian, Inc. access to this program.  By using this program,
 the user acknowledges that Gaussian, Inc. is engaged in the
 business of creating and licensing software in the field of
 computational chemistry and represents and warrants to the
 licensee that it is not a competitor of Gaussian, Inc. and that
 it will not use this program in any manner prohibited above.
 ---------------------------------------------------------------
  

 Cite this work as:
 Gaussian 16, Revision A.03,
 M. J. Frisch, G. W. Trucks, H. B. Schlegel, G. E. Scuseria, 
 M. A. Robb, J. R. Cheeseman, G. Scalmani, V. Barone, 
 G. A. Petersson, H. Nakatsuji, X. Li, M. Caricato, A. V. Marenich, 
 J. Bloino, B. G. Janesko, R. Gomperts, B. Mennucci, H. P. Hratchian, 
 J. V. Ortiz, A. F. Izmaylov, J. L. Sonnenberg, D. Williams-Young, 
 F. Ding, F. Lipparini, F. Egidi, J. Goings, B. Peng, A. Petrone, 
 T. Henderson, D. Ranasinghe, V. G. Zakrzewski, J. Gao, N. Rega, 
 G. Zheng, W. Liang, M. Hada, M. Ehara, K. Toyota, R. Fukuda, 
 J. Hasegawa, M. Ishida, T. Nakajima, Y. Honda, O. Kitao, H. Nakai, 
 T. Vreven, K. Throssell, J. A. Montgomery, Jr., J. E. Peralta, 
 F. Ogliaro, M. J. Bearpark, J. J. Heyd, E. N. Brothers, K. N. Kudin, 
 V. N. Staroverov, T. A. Keith, R. Kobayashi, J. Normand, 
 K. Raghavachari, A. P. Rendell, J. C. Burant, S. S. Iyengar, 
 J. Tomasi, M. Cossi, J. M. Millam, M. Klene, C. Adamo, R. Cammi, 
 J. W. Ochterski, R. L. Martin, K. Morokuma, O. Farkas, 
 J. B. Foresman, and D. J. Fox, Gaussian, Inc., Wallingford CT, 2016.
 
 ******************************************
 Gaussian 16:  ES64L-G16RevA.03 25-Dec-2016
                 9-Oct-2017 
 ******************************************
 %mem=10GB
 %nprocshared=36
 Will use up to   36 processors via shared memory.
 ----------------------------------------------------------------------
 #p b3lyp 6-31g* freq=noraman pop=cm5 opt=(ts,calcfc,noeigentest,maxste
 p=5)
 ----------------------------------------------------------------------
 1/5=1,8=5,10=4,11=1,18=20,26=3,38=1/1,3;
 2/9=110,12=2,17=6,18=5,40=1/2;
 3/5=1,6=6,7=1,11=2,25=1,30=1,71=2,74=-5,140=1/1,2,3;
 4//1;
 5/5=2,38=5/2;
 8/6=4,10=90,11=11/1;
 11/6=1,8=1,9=11,15=111,16=1/1,2,10;
 10/6=1,13=1/2;
 6/7=2,8=2,9=2,10=2,28=1,79=1/1;
 7/10=1,18=20,25=1/1,2,3,16;
 1/5=1,8=5,10=4,11=1,18=20,26=3/3(2);
 2/9=110/2;
 99//99;
 2/9=110/2;
 3/5=1,6=6,7=1,11=2,25=1,30=1,71=1,74=-5/1,2,3;
 4/5=5,16=3,69=1/1;
 5/5=2,38=5/2;
 7//1,2,3,16;
 1/5=1,8=5,11=1,18=20,26=3/3(-5);
 2/9=110/2;
 6/7=2,8=2,9=2,10=2,19=2,28=1,79=1/1;
 99/9=1/99;
 Leave Link    1 at Mon Oct  9 11:50:15 2017, MaxMem=  1342177280 cpu:               3.8 elap:               0.1
 (Enter /n/sw/g16_nehalem/g16/l101.exe)
 -----
 title
 -----
 Symbolic Z-matrix:
 Charge =  0 Multiplicity = 1
 N                    -3.7346   -1.31553  -1.03643 
 H                    -3.67     -0.31698  -1.27959 
 C                    -2.5684   -1.99486  -1.23294 
 N                    -1.60136  -1.17733  -1.7521 
 H                    -1.81799  -0.17818  -1.78709 
 S                    -2.28753  -3.63725  -0.8947 
 N                    -0.16417   2.35893   0.60603 
 C                    -1.19315   2.60656   1.34185 
 H                     0.10569   1.38075   0.40407 
 C                    -2.67972   2.54482  -1.11446 
 N                    -2.9789    1.46867  -1.49129 
 C                     0.4475    3.35062  -0.32867 
 H                    -0.09108   3.16732  -1.26712 
 C                    -0.25577  -1.59432  -2.09547 
 H                    -0.30805  -2.66812  -2.25998 
 C                     0.22389  -0.95342  -3.44841 
 C                     0.68256  -1.2883   -0.90486 
 O                     0.68077  -0.14966  -0.40279 
 N                     1.49759  -2.26823  -0.42484 
 C                     1.50905  -3.65347  -0.91341 
 H                     1.93557  -4.28617  -0.13457 
 H                     0.49171  -4.00178  -1.10052 
 H                     2.12399  -3.76037  -1.813 
 C                     2.42464  -1.92666   0.67979 
 H                     2.40474  -0.8348    0.7114 
 H                    -1.50126   3.6469    1.39383 
 C                     1.92407   3.04507  -0.52548 
 C                     2.5139    3.35862  -1.7566 
 C                     2.72598   2.51878   0.49394 
 C                     3.87726   3.15455  -1.96402 
 H                     1.9003    3.76885  -2.55466 
 C                     4.09169   2.31052   0.28682 
 H                     2.28673   2.26623   1.45534 
 C                     4.67147   2.62992  -0.94167 
 H                     4.3184    3.40252  -2.92545 
 H                     4.70076   1.89959   1.08726 
 H                     5.7344    2.47125  -1.10152 
 C                     0.18161   4.79747   0.08659 
 C                    -0.95011   5.45841  -0.41447 
 C                     1.04827   5.48364   0.94921 
 C                    -1.20351   6.78475  -0.05919 
 H                    -1.64614   4.90767  -1.04225 
 C                     0.78929   6.8073    1.30432 
 H                     1.93831   4.99086   1.3285 
 C                    -0.33506   7.46255   0.79753 
 H                    -2.08266   7.2862   -0.45454 
 H                     1.47188   7.32934   1.96951 
 H                    -0.53153   8.49635   1.06917 
 C                     1.92469  -2.4226    2.0399 
 C                     0.664    -3.00884   2.2046 
 C                     2.72132  -2.21626   3.17784 
 C                     0.21936  -3.3946    3.47298 
 H                     0.01264  -3.16051   1.34874 
 C                     2.27571  -2.59649   4.44251 
 H                     3.70171  -1.75905   3.07011 
 C                     1.02128  -3.19293   4.59489 
 H                    -0.76056  -3.85322   3.57466 
 H                     2.90997  -2.42868   5.3093 
 H                     0.67445  -3.49485   5.57961 
 C                     3.85432  -2.34059   0.32076 
 C                     4.60077  -1.50311  -0.52092 
 C                     4.43699  -3.53498   0.76282 
 C                     5.89189  -1.85201  -0.91635 
 H                     4.16574  -0.56744  -0.86402 
 C                     5.72969  -3.8865    0.36857 
 H                     3.88486  -4.18968   1.43066 
 C                     6.46093  -3.04779  -0.473 
 H                     6.45481  -1.18797  -1.56723 
 H                     6.16423  -4.81786   0.72208 
 H                     7.46762  -3.32106  -0.77769 
 C                     1.63282  -1.48371  -3.78197 
 H                     2.37306  -1.20015  -3.02508 
 H                     1.63946  -2.57632  -3.8743 
 H                     1.96966  -1.07177  -4.7402 
 C                    -0.75088  -1.40957  -4.55347 
 H                    -1.76436  -1.04066  -4.37208 
 H                    -0.41976  -1.02678  -5.52617 
 H                    -0.79689  -2.50329  -4.61879 
 C                     0.26249   0.58667  -3.41028 
 H                     0.98313   0.9517   -2.67386 
 H                     0.5627    0.96415  -4.39572 
 H                    -0.71564   1.02328  -3.18004 
 C                    -1.88378   1.64638   2.26524 
 C                    -1.352     2.01649   3.68158 
 H                    -1.5382    3.06799   3.92882 
 H                    -1.87291   1.3995    4.42126 
 H                    -0.27773   1.82225   3.77121 
 C                    -3.40315   1.92545   2.20964 
 H                    -3.80034   1.70543   1.21717 
 H                    -3.91037   1.29576   2.94815 
 H                    -3.62645   2.97281   2.44491 
 C                    -1.59114   0.17246   1.95872 
 H                    -1.92895  -0.09243   0.95427 
 H                    -0.52725  -0.07005   2.04171 
 H                    -2.12714  -0.45808   2.67491 
 C                    -4.99578  -1.66934  -0.51571 
 C                    -5.3848   -2.9469   -0.08469 
 C                    -5.92602  -0.6125   -0.44349 
 C                    -6.67537  -3.14364   0.4106 
 H                    -4.68595  -3.76867  -0.1413 
 C                    -7.20745  -0.82751   0.05123 
 H                    -5.63094   0.37714  -0.78404 
 C                    -7.59428  -2.09785   0.48547 
 H                    -6.95998  -4.14027   0.73931 
 H                    -7.90667   0.00379   0.09449 
 H                    -8.59579  -2.26823   0.87097 
 
 Add virtual bond connecting atoms O18        and H9         Dist= 3.45D+00.
 Add virtual bond connecting atoms N11        and H2         Dist= 3.64D+00.
 Add virtual bond connecting atoms N11        and H5         Dist= 3.85D+00.
 ITRead=  0  0  0  0  0  0  0  0  0  0  0  0  0  0  0  0  0  0  0  0
 ITRead=  0  0  0  0  0  0  0  0  0  0  0  0  0  0  0  0  0  0  0  0
 ITRead=  0  0  0  0  0  0  0  0  0  0  0  0  0  0  0  0  0  0  0  0
 ITRead=  0  0  0  0  0  0  0  0  0  0  0  0  0  0  0  0  0  0  0  0
 ITRead=  0  0  0  0  0  0  0  0  0  0  0  0  0  0  0  0  0  0  0  0
 ITRead=  0  0  0  0  0  0
 MicOpt= -1 -1 -1 -1 -1 -1 -1 -1 -1 -1 -1 -1 -1 -1 -1 -1 -1 -1 -1 -1
 MicOpt= -1 -1 -1 -1 -1 -1 -1 -1 -1 -1 -1 -1 -1 -1 -1 -1 -1 -1 -1 -1
 MicOpt= -1 -1 -1 -1 -1 -1 -1 -1 -1 -1 -1 -1 -1 -1 -1 -1 -1 -1 -1 -1
 MicOpt= -1 -1 -1 -1 -1 -1 -1 -1 -1 -1 -1 -1 -1 -1 -1 -1 -1 -1 -1 -1
 MicOpt= -1 -1 -1 -1 -1 -1 -1 -1 -1 -1 -1 -1 -1 -1 -1 -1 -1 -1 -1 -1
 MicOpt= -1 -1 -1 -1 -1 -1
 NAtoms=    106 NQM=      106 NQMF=       0 NMMI=      0 NMMIF=      0
                NMic=       0 NMicF=      0.
                    Isotopes and Nuclear Properties:
 (Nuclear quadrupole moments (NQMom) in fm**2, nuclear magnetic moments (NMagM)
  in nuclear magnetons)

  Atom         1           2           3           4           5           6           7           8           9          10
 IAtWgt=          14           1          12          14           1          32          14          12           1          12
 AtmWgt=  14.0030740   1.0078250  12.0000000  14.0030740   1.0078250  31.9720718  14.0030740  12.0000000   1.0078250  12.0000000
 NucSpn=           2           1           0           2           1           0           2           0           1           0
 AtZEff=   0.0000000   0.0000000   0.0000000   0.0000000   0.0000000   0.0000000   0.0000000   0.0000000   0.0000000   0.0000000
 NQMom=    2.0440000   0.0000000   0.0000000   2.0440000   0.0000000   0.0000000   2.0440000   0.0000000   0.0000000   0.0000000
 NMagM=    0.4037610   2.7928460   0.0000000   0.4037610   2.7928460   0.0000000   0.4037610   0.0000000   2.7928460   0.0000000
 AtZNuc=   7.0000000   1.0000000   6.0000000   7.0000000   1.0000000  16.0000000   7.0000000   6.0000000   1.0000000   6.0000000

  Atom        11          12          13          14          15          16          17          18          19          20
 IAtWgt=          14          12           1          12           1          12          12          16          14          12
 AtmWgt=  14.0030740  12.0000000   1.0078250  12.0000000   1.0078250  12.0000000  12.0000000  15.9949146  14.0030740  12.0000000
 NucSpn=           2           0           1           0           1           0           0           0           2           0
 AtZEff=   0.0000000   0.0000000   0.0000000   0.0000000   0.0000000   0.0000000   0.0000000   0.0000000   0.0000000   0.0000000
 NQMom=    2.0440000   0.0000000   0.0000000   0.0000000   0.0000000   0.0000000   0.0000000   0.0000000   2.0440000   0.0000000
 NMagM=    0.4037610   0.0000000   2.7928460   0.0000000   2.7928460   0.0000000   0.0000000   0.0000000   0.4037610   0.0000000
 AtZNuc=   7.0000000   6.0000000   1.0000000   6.0000000   1.0000000   6.0000000   6.0000000   8.0000000   7.0000000   6.0000000

  Atom        21          22          23          24          25          26          27          28          29          30
 IAtWgt=           1           1           1          12           1           1          12          12          12          12
 AtmWgt=   1.0078250   1.0078250   1.0078250  12.0000000   1.0078250   1.0078250  12.0000000  12.0000000  12.0000000  12.0000000
 NucSpn=           1           1           1           0           1           1           0           0           0           0
 AtZEff=   0.0000000   0.0000000   0.0000000   0.0000000   0.0000000   0.0000000   0.0000000   0.0000000   0.0000000   0.0000000
 NQMom=    0.0000000   0.0000000   0.0000000   0.0000000   0.0000000   0.0000000   0.0000000   0.0000000   0.0000000   0.0000000
 NMagM=    2.7928460   2.7928460   2.7928460   0.0000000   2.7928460   2.7928460   0.0000000   0.0000000   0.0000000   0.0000000
 AtZNuc=   1.0000000   1.0000000   1.0000000   6.0000000   1.0000000   1.0000000   6.0000000   6.0000000   6.0000000   6.0000000

  Atom        31          32          33          34          35          36          37          38          39          40
 IAtWgt=           1          12           1          12           1           1           1          12          12          12
 AtmWgt=   1.0078250  12.0000000   1.0078250  12.0000000   1.0078250   1.0078250   1.0078250  12.0000000  12.0000000  12.0000000
 NucSpn=           1           0           1           0           1           1           1           0           0           0
 AtZEff=   0.0000000   0.0000000   0.0000000   0.0000000   0.0000000   0.0000000   0.0000000   0.0000000   0.0000000   0.0000000
 NQMom=    0.0000000   0.0000000   0.0000000   0.0000000   0.0000000   0.0000000   0.0000000   0.0000000   0.0000000   0.0000000
 NMagM=    2.7928460   0.0000000   2.7928460   0.0000000   2.7928460   2.7928460   2.7928460   0.0000000   0.0000000   0.0000000
 AtZNuc=   1.0000000   6.0000000   1.0000000   6.0000000   1.0000000   1.0000000   1.0000000   6.0000000   6.0000000   6.0000000

  Atom        41          42          43          44          45          46          47          48          49          50
 IAtWgt=          12           1          12           1          12           1           1           1          12          12
 AtmWgt=  12.0000000   1.0078250  12.0000000   1.0078250  12.0000000   1.0078250   1.0078250   1.0078250  12.0000000  12.0000000
 NucSpn=           0           1           0           1           0           1           1           1           0           0
 AtZEff=   0.0000000   0.0000000   0.0000000   0.0000000   0.0000000   0.0000000   0.0000000   0.0000000   0.0000000   0.0000000
 NQMom=    0.0000000   0.0000000   0.0000000   0.0000000   0.0000000   0.0000000   0.0000000   0.0000000   0.0000000   0.0000000
 NMagM=    0.0000000   2.7928460   0.0000000   2.7928460   0.0000000   2.7928460   2.7928460   2.7928460   0.0000000   0.0000000
 AtZNuc=   6.0000000   1.0000000   6.0000000   1.0000000   6.0000000   1.0000000   1.0000000   1.0000000   6.0000000   6.0000000

  Atom        51          52          53          54          55          56          57          58          59          60
 IAtWgt=          12          12           1          12           1          12           1           1           1          12
 AtmWgt=  12.0000000  12.0000000   1.0078250  12.0000000   1.0078250  12.0000000   1.0078250   1.0078250   1.0078250  12.0000000
 NucSpn=           0           0           1           0           1           0           1           1           1           0
 AtZEff=   0.0000000   0.0000000   0.0000000   0.0000000   0.0000000   0.0000000   0.0000000   0.0000000   0.0000000   0.0000000
 NQMom=    0.0000000   0.0000000   0.0000000   0.0000000   0.0000000   0.0000000   0.0000000   0.0000000   0.0000000   0.0000000
 NMagM=    0.0000000   0.0000000   2.7928460   0.0000000   2.7928460   0.0000000   2.7928460   2.7928460   2.7928460   0.0000000
 AtZNuc=   6.0000000   6.0000000   1.0000000   6.0000000   1.0000000   6.0000000   1.0000000   1.0000000   1.0000000   6.0000000

  Atom        61          62          63          64          65          66          67          68          69          70
 IAtWgt=          12          12          12           1          12           1          12           1           1           1
 AtmWgt=  12.0000000  12.0000000  12.0000000   1.0078250  12.0000000   1.0078250  12.0000000   1.0078250   1.0078250   1.0078250
 NucSpn=           0           0           0           1           0           1           0           1           1           1
 AtZEff=   0.0000000   0.0000000   0.0000000   0.0000000   0.0000000   0.0000000   0.0000000   0.0000000   0.0000000   0.0000000
 NQMom=    0.0000000   0.0000000   0.0000000   0.0000000   0.0000000   0.0000000   0.0000000   0.0000000   0.0000000   0.0000000
 NMagM=    0.0000000   0.0000000   0.0000000   2.7928460   0.0000000   2.7928460   0.0000000   2.7928460   2.7928460   2.7928460
 AtZNuc=   6.0000000   6.0000000   6.0000000   1.0000000   6.0000000   1.0000000   6.0000000   1.0000000   1.0000000   1.0000000

  Atom        71          72          73          74          75          76          77          78          79          80
 IAtWgt=          12           1           1           1          12           1           1           1          12           1
 AtmWgt=  12.0000000   1.0078250   1.0078250   1.0078250  12.0000000   1.0078250   1.0078250   1.0078250  12.0000000   1.0078250
 NucSpn=           0           1           1           1           0           1           1           1           0           1
 AtZEff=   0.0000000   0.0000000   0.0000000   0.0000000   0.0000000   0.0000000   0.0000000   0.0000000   0.0000000   0.0000000
 NQMom=    0.0000000   0.0000000   0.0000000   0.0000000   0.0000000   0.0000000   0.0000000   0.0000000   0.0000000   0.0000000
 NMagM=    0.0000000   2.7928460   2.7928460   2.7928460   0.0000000   2.7928460   2.7928460   2.7928460   0.0000000   2.7928460
 AtZNuc=   6.0000000   1.0000000   1.0000000   1.0000000   6.0000000   1.0000000   1.0000000   1.0000000   6.0000000   1.0000000

  Atom        81          82          83          84          85          86          87          88          89          90
 IAtWgt=           1           1          12          12           1           1           1          12           1           1
 AtmWgt=   1.0078250   1.0078250  12.0000000  12.0000000   1.0078250   1.0078250   1.0078250  12.0000000   1.0078250   1.0078250
 NucSpn=           1           1           0           0           1           1           1           0           1           1
 AtZEff=   0.0000000   0.0000000   0.0000000   0.0000000   0.0000000   0.0000000   0.0000000   0.0000000   0.0000000   0.0000000
 NQMom=    0.0000000   0.0000000   0.0000000   0.0000000   0.0000000   0.0000000   0.0000000   0.0000000   0.0000000   0.0000000
 NMagM=    2.7928460   2.7928460   0.0000000   0.0000000   2.7928460   2.7928460   2.7928460   0.0000000   2.7928460   2.7928460
 AtZNuc=   1.0000000   1.0000000   6.0000000   6.0000000   1.0000000   1.0000000   1.0000000   6.0000000   1.0000000   1.0000000

  Atom        91          92          93          94          95          96          97          98          99         100
 IAtWgt=           1          12           1           1           1          12          12          12          12           1
 AtmWgt=   1.0078250  12.0000000   1.0078250   1.0078250   1.0078250  12.0000000  12.0000000  12.0000000  12.0000000   1.0078250
 NucSpn=           1           0           1           1           1           0           0           0           0           1
 AtZEff=   0.0000000   0.0000000   0.0000000   0.0000000   0.0000000   0.0000000   0.0000000   0.0000000   0.0000000   0.0000000
 NQMom=    0.0000000   0.0000000   0.0000000   0.0000000   0.0000000   0.0000000   0.0000000   0.0000000   0.0000000   0.0000000
 NMagM=    2.7928460   0.0000000   2.7928460   2.7928460   2.7928460   0.0000000   0.0000000   0.0000000   0.0000000   2.7928460
 AtZNuc=   1.0000000   6.0000000   1.0000000   1.0000000   1.0000000   6.0000000   6.0000000   6.0000000   6.0000000   1.0000000

  Atom       101         102         103         104         105         106
 IAtWgt=          12           1          12           1           1           1
 AtmWgt=  12.0000000   1.0078250  12.0000000   1.0078250   1.0078250   1.0078250
 NucSpn=           0           1           0           1           1           1
 AtZEff=   0.0000000   0.0000000   0.0000000   0.0000000   0.0000000   0.0000000
 NQMom=    0.0000000   0.0000000   0.0000000   0.0000000   0.0000000   0.0000000
 NMagM=    0.0000000   2.7928460   0.0000000   2.7928460   2.7928460   2.7928460
 AtZNuc=   6.0000000   1.0000000   6.0000000   1.0000000   1.0000000   1.0000000
 Leave Link  101 at Mon Oct  9 11:50:16 2017, MaxMem=  1342177280 cpu:              21.8 elap:               0.6
 (Enter /n/sw/g16_nehalem/g16/l103.exe)

 GradGradGradGradGradGradGradGradGradGradGradGradGradGradGradGradGradGrad
 Berny optimization.
 Initialization pass.
                           ----------------------------
                           !    Initial Parameters    !
                           ! (Angstroms and Degrees)  !
 --------------------------                            --------------------------
 ! Name  Definition              Value          Derivative Info.                !
 --------------------------------------------------------------------------------
 ! R1    R(1,2)                  1.0298         calculate D2E/DX2 analytically  !
 ! R2    R(1,3)                  1.3639         calculate D2E/DX2 analytically  !
 ! R3    R(1,96)                 1.4096         calculate D2E/DX2 analytically  !
 ! R4    R(2,11)                 1.9264         calculate D2E/DX2 analytically  !
 ! R5    R(3,4)                  1.3686         calculate D2E/DX2 analytically  !
 ! R6    R(3,6)                  1.7002         calculate D2E/DX2 analytically  !
 ! R7    R(4,5)                  1.023          calculate D2E/DX2 analytically  !
 ! R8    R(4,14)                 1.45           calculate D2E/DX2 analytically  !
 ! R9    R(5,11)                 2.0365         calculate D2E/DX2 analytically  !
 ! R10   R(7,8)                  1.289          calculate D2E/DX2 analytically  !
 ! R11   R(7,9)                  1.0346         calculate D2E/DX2 analytically  !
 ! R12   R(7,12)                 1.4937         calculate D2E/DX2 analytically  !
 ! R13   R(8,26)                 1.0862         calculate D2E/DX2 analytically  !
 ! R14   R(8,83)                 1.5005         calculate D2E/DX2 analytically  !
 ! R15   R(9,18)                 1.8232         calculate D2E/DX2 analytically  !
 ! R16   R(10,11)                1.1788         calculate D2E/DX2 analytically  !
 ! R17   R(12,13)                1.0974         calculate D2E/DX2 analytically  !
 ! R18   R(12,27)                1.5206         calculate D2E/DX2 analytically  !
 ! R19   R(12,38)                1.5286         calculate D2E/DX2 analytically  !
 ! R20   R(14,15)                1.0876         calculate D2E/DX2 analytically  !
 ! R21   R(14,16)                1.572          calculate D2E/DX2 analytically  !
 ! R22   R(14,17)                1.5465         calculate D2E/DX2 analytically  !
 ! R23   R(16,71)                1.5419         calculate D2E/DX2 analytically  !
 ! R24   R(16,75)                1.5425         calculate D2E/DX2 analytically  !
 ! R25   R(16,79)                1.541          calculate D2E/DX2 analytically  !
 ! R26   R(17,18)                1.2444         calculate D2E/DX2 analytically  !
 ! R27   R(17,19)                1.362          calculate D2E/DX2 analytically  !
 ! R28   R(19,20)                1.4689         calculate D2E/DX2 analytically  !
 ! R29   R(19,24)                1.482          calculate D2E/DX2 analytically  !
 ! R30   R(20,21)                1.0903         calculate D2E/DX2 analytically  !
 ! R31   R(20,22)                1.0915         calculate D2E/DX2 analytically  !
 ! R32   R(20,23)                1.0949         calculate D2E/DX2 analytically  !
 ! R33   R(24,25)                1.0925         calculate D2E/DX2 analytically  !
 ! R34   R(24,49)                1.5316         calculate D2E/DX2 analytically  !
 ! R35   R(24,60)                1.5311         calculate D2E/DX2 analytically  !
 ! R36   R(27,28)                1.4007         calculate D2E/DX2 analytically  !
 ! R37   R(27,29)                1.3997         calculate D2E/DX2 analytically  !
 ! R38   R(28,30)                1.3941         calculate D2E/DX2 analytically  !
 ! R39   R(28,31)                1.0871         calculate D2E/DX2 analytically  !
 ! R40   R(29,32)                1.3969         calculate D2E/DX2 analytically  !
 ! R41   R(29,33)                1.0867         calculate D2E/DX2 analytically  !
 ! R42   R(30,34)                1.3969         calculate D2E/DX2 analytically  !
 ! R43   R(30,35)                1.0865         calculate D2E/DX2 analytically  !
 ! R44   R(32,34)                1.3955         calculate D2E/DX2 analytically  !
 ! R45   R(32,36)                1.0865         calculate D2E/DX2 analytically  !
 ! R46   R(34,37)                1.0865         calculate D2E/DX2 analytically  !
 ! R47   R(38,39)                1.4031         calculate D2E/DX2 analytically  !
 ! R48   R(38,40)                1.4022         calculate D2E/DX2 analytically  !
 ! R49   R(39,41)                1.3963         calculate D2E/DX2 analytically  !
 ! R50   R(39,42)                1.0871         calculate D2E/DX2 analytically  !
 ! R51   R(40,43)                1.3947         calculate D2E/DX2 analytically  !
 ! R52   R(40,44)                1.0858         calculate D2E/DX2 analytically  !
 ! R53   R(41,45)                1.3956         calculate D2E/DX2 analytically  !
 ! R54   R(41,46)                1.0866         calculate D2E/DX2 analytically  !
 ! R55   R(43,45)                1.3966         calculate D2E/DX2 analytically  !
 ! R56   R(43,47)                1.0867         calculate D2E/DX2 analytically  !
 ! R57   R(45,48)                1.0868         calculate D2E/DX2 analytically  !
 ! R58   R(49,50)                1.4001         calculate D2E/DX2 analytically  !
 ! R59   R(49,51)                1.4043         calculate D2E/DX2 analytically  !
 ! R60   R(50,52)                1.3983         calculate D2E/DX2 analytically  !
 ! R61   R(50,53)                1.0862         calculate D2E/DX2 analytically  !
 ! R62   R(51,54)                1.3937         calculate D2E/DX2 analytically  !
 ! R63   R(51,55)                1.0871         calculate D2E/DX2 analytically  !
 ! R64   R(52,56)                1.3937         calculate D2E/DX2 analytically  !
 ! R65   R(52,57)                1.0867         calculate D2E/DX2 analytically  !
 ! R66   R(54,56)                1.3973         calculate D2E/DX2 analytically  !
 ! R67   R(54,58)                1.0871         calculate D2E/DX2 analytically  !
 ! R68   R(56,59)                1.0868         calculate D2E/DX2 analytically  !
 ! R69   R(60,61)                1.4025         calculate D2E/DX2 analytically  !
 ! R70   R(60,62)                1.4005         calculate D2E/DX2 analytically  !
 ! R71   R(61,63)                1.3947         calculate D2E/DX2 analytically  !
 ! R72   R(61,64)                1.0874         calculate D2E/DX2 analytically  !
 ! R73   R(62,65)                1.3965         calculate D2E/DX2 analytically  !
 ! R74   R(62,66)                1.086          calculate D2E/DX2 analytically  !
 ! R75   R(63,67)                1.3965         calculate D2E/DX2 analytically  !
 ! R76   R(63,68)                1.087          calculate D2E/DX2 analytically  !
 ! R77   R(65,67)                1.3951         calculate D2E/DX2 analytically  !
 ! R78   R(65,69)                1.0868         calculate D2E/DX2 analytically  !
 ! R79   R(67,70)                1.0867         calculate D2E/DX2 analytically  !
 ! R80   R(71,72)                1.096          calculate D2E/DX2 analytically  !
 ! R81   R(71,73)                1.0965         calculate D2E/DX2 analytically  !
 ! R82   R(71,74)                1.0961         calculate D2E/DX2 analytically  !
 ! R83   R(75,76)                1.0937         calculate D2E/DX2 analytically  !
 ! R84   R(75,77)                1.0965         calculate D2E/DX2 analytically  !
 ! R85   R(75,78)                1.0966         calculate D2E/DX2 analytically  !
 ! R86   R(79,80)                1.0931         calculate D2E/DX2 analytically  !
 ! R87   R(79,81)                1.0971         calculate D2E/DX2 analytically  !
 ! R88   R(79,82)                1.0956         calculate D2E/DX2 analytically  !
 ! R89   R(83,84)                1.5575         calculate D2E/DX2 analytically  !
 ! R90   R(83,88)                1.5458         calculate D2E/DX2 analytically  !
 ! R91   R(83,92)                1.5336         calculate D2E/DX2 analytically  !
 ! R92   R(84,85)                1.0961         calculate D2E/DX2 analytically  !
 ! R93   R(84,86)                1.0951         calculate D2E/DX2 analytically  !
 ! R94   R(84,87)                1.0954         calculate D2E/DX2 analytically  !
 ! R95   R(88,89)                1.0914         calculate D2E/DX2 analytically  !
 ! R96   R(88,90)                1.0951         calculate D2E/DX2 analytically  !
 ! R97   R(88,91)                1.0964         calculate D2E/DX2 analytically  !
 ! R98   R(92,93)                1.0923         calculate D2E/DX2 analytically  !
 ! R99   R(92,94)                1.0943         calculate D2E/DX2 analytically  !
 ! R100  R(92,95)                1.0944         calculate D2E/DX2 analytically  !
 ! R101  R(96,97)                1.4033         calculate D2E/DX2 analytically  !
 ! R102  R(96,98)                1.4098         calculate D2E/DX2 analytically  !
 ! R103  R(97,99)                1.3963         calculate D2E/DX2 analytically  !
 ! R104  R(97,100)               1.0802         calculate D2E/DX2 analytically  !
 ! R105  R(98,101)               1.3903         calculate D2E/DX2 analytically  !
 ! R106  R(98,102)               1.0874         calculate D2E/DX2 analytically  !
 ! R107  R(99,103)               1.3942         calculate D2E/DX2 analytically  !
 ! R108  R(99,104)               1.0874         calculate D2E/DX2 analytically  !
 ! R109  R(101,103)              1.3971         calculate D2E/DX2 analytically  !
 ! R110  R(101,105)              1.0871         calculate D2E/DX2 analytically  !
 ! R111  R(103,106)              1.0866         calculate D2E/DX2 analytically  !
 ! A1    A(2,1,3)              113.2871         calculate D2E/DX2 analytically  !
 ! A2    A(2,1,96)             112.7526         calculate D2E/DX2 analytically  !
 ! A3    A(3,1,96)             133.8881         calculate D2E/DX2 analytically  !
 ! A4    A(1,2,11)             161.3169         calculate D2E/DX2 analytically  !
 ! A5    A(1,3,4)              111.1801         calculate D2E/DX2 analytically  !
 ! A6    A(1,3,6)              126.423          calculate D2E/DX2 analytically  !
 ! A7    A(4,3,6)              122.3967         calculate D2E/DX2 analytically  !
 ! A8    A(3,4,5)              116.5379         calculate D2E/DX2 analytically  !
 ! A9    A(3,4,14)             125.0134         calculate D2E/DX2 analytically  !
 ! A10   A(5,4,14)             117.9899         calculate D2E/DX2 analytically  !
 ! A11   A(4,5,11)             154.9032         calculate D2E/DX2 analytically  !
 ! A12   A(8,7,9)              120.0838         calculate D2E/DX2 analytically  !
 ! A13   A(8,7,12)             123.8175         calculate D2E/DX2 analytically  !
 ! A14   A(9,7,12)             113.4986         calculate D2E/DX2 analytically  !
 ! A15   A(7,8,26)             115.9593         calculate D2E/DX2 analytically  !
 ! A16   A(7,8,83)             126.5675         calculate D2E/DX2 analytically  !
 ! A17   A(26,8,83)            116.9267         calculate D2E/DX2 analytically  !
 ! A18   A(7,9,18)             164.216          calculate D2E/DX2 analytically  !
 ! A19   A(2,11,5)              58.0543         calculate D2E/DX2 analytically  !
 ! A20   A(2,11,10)            154.4393         calculate D2E/DX2 analytically  !
 ! A21   A(5,11,10)            129.7908         calculate D2E/DX2 analytically  !
 ! A22   A(7,12,13)            102.8999         calculate D2E/DX2 analytically  !
 ! A23   A(7,12,27)            110.1946         calculate D2E/DX2 analytically  !
 ! A24   A(7,12,38)            112.7793         calculate D2E/DX2 analytically  !
 ! A25   A(13,12,27)           109.4089         calculate D2E/DX2 analytically  !
 ! A26   A(13,12,38)           107.7604         calculate D2E/DX2 analytically  !
 ! A27   A(27,12,38)           113.2197         calculate D2E/DX2 analytically  !
 ! A28   A(4,14,15)            105.9714         calculate D2E/DX2 analytically  !
 ! A29   A(4,14,16)            111.6981         calculate D2E/DX2 analytically  !
 ! A30   A(4,14,17)            108.8955         calculate D2E/DX2 analytically  !
 ! A31   A(15,14,16)           106.6794         calculate D2E/DX2 analytically  !
 ! A32   A(15,14,17)           109.9368         calculate D2E/DX2 analytically  !
 ! A33   A(16,14,17)           113.3767         calculate D2E/DX2 analytically  !
 ! A34   A(14,16,71)           108.9515         calculate D2E/DX2 analytically  !
 ! A35   A(14,16,75)           107.6488         calculate D2E/DX2 analytically  !
 ! A36   A(14,16,79)           113.1904         calculate D2E/DX2 analytically  !
 ! A37   A(71,16,75)           108.7078         calculate D2E/DX2 analytically  !
 ! A38   A(71,16,79)           109.036          calculate D2E/DX2 analytically  !
 ! A39   A(75,16,79)           109.2136         calculate D2E/DX2 analytically  !
 ! A40   A(14,17,18)           119.3934         calculate D2E/DX2 analytically  !
 ! A41   A(14,17,19)           119.4759         calculate D2E/DX2 analytically  !
 ! A42   A(18,17,19)           121.1307         calculate D2E/DX2 analytically  !
 ! A43   A(9,18,17)            161.2776         calculate D2E/DX2 analytically  !
 ! A44   A(17,19,20)           124.468          calculate D2E/DX2 analytically  !
 ! A45   A(17,19,24)           118.1133         calculate D2E/DX2 analytically  !
 ! A46   A(20,19,24)           117.412          calculate D2E/DX2 analytically  !
 ! A47   A(19,20,21)           108.2214         calculate D2E/DX2 analytically  !
 ! A48   A(19,20,22)           110.5297         calculate D2E/DX2 analytically  !
 ! A49   A(19,20,23)           111.6983         calculate D2E/DX2 analytically  !
 ! A50   A(21,20,22)           107.5718         calculate D2E/DX2 analytically  !
 ! A51   A(21,20,23)           108.0909         calculate D2E/DX2 analytically  !
 ! A52   A(22,20,23)           110.5778         calculate D2E/DX2 analytically  !
 ! A53   A(19,24,25)           103.9174         calculate D2E/DX2 analytically  !
 ! A54   A(19,24,49)           112.5249         calculate D2E/DX2 analytically  !
 ! A55   A(19,24,60)           110.3052         calculate D2E/DX2 analytically  !
 ! A56   A(25,24,49)           106.9762         calculate D2E/DX2 analytically  !
 ! A57   A(25,24,60)           107.0967         calculate D2E/DX2 analytically  !
 ! A58   A(49,24,60)           115.1821         calculate D2E/DX2 analytically  !
 ! A59   A(12,27,28)           118.5337         calculate D2E/DX2 analytically  !
 ! A60   A(12,27,29)           122.5198         calculate D2E/DX2 analytically  !
 ! A61   A(28,27,29)           118.885          calculate D2E/DX2 analytically  !
 ! A62   A(27,28,30)           120.6534         calculate D2E/DX2 analytically  !
 ! A63   A(27,28,31)           119.4761         calculate D2E/DX2 analytically  !
 ! A64   A(30,28,31)           119.87           calculate D2E/DX2 analytically  !
 ! A65   A(27,29,32)           120.5416         calculate D2E/DX2 analytically  !
 ! A66   A(27,29,33)           120.0071         calculate D2E/DX2 analytically  !
 ! A67   A(32,29,33)           119.4511         calculate D2E/DX2 analytically  !
 ! A68   A(28,30,34)           120.1408         calculate D2E/DX2 analytically  !
 ! A69   A(28,30,35)           119.6924         calculate D2E/DX2 analytically  !
 ! A70   A(34,30,35)           120.1665         calculate D2E/DX2 analytically  !
 ! A71   A(29,32,34)           120.1715         calculate D2E/DX2 analytically  !
 ! A72   A(29,32,36)           119.6824         calculate D2E/DX2 analytically  !
 ! A73   A(34,32,36)           120.1462         calculate D2E/DX2 analytically  !
 ! A74   A(30,34,32)           119.6072         calculate D2E/DX2 analytically  !
 ! A75   A(30,34,37)           120.2247         calculate D2E/DX2 analytically  !
 ! A76   A(32,34,37)           120.1681         calculate D2E/DX2 analytically  !
 ! A77   A(12,38,39)           119.2857         calculate D2E/DX2 analytically  !
 ! A78   A(12,38,40)           121.5218         calculate D2E/DX2 analytically  !
 ! A79   A(39,38,40)           119.1907         calculate D2E/DX2 analytically  !
 ! A80   A(38,39,41)           120.1972         calculate D2E/DX2 analytically  !
 ! A81   A(38,39,42)           118.9461         calculate D2E/DX2 analytically  !
 ! A82   A(41,39,42)           120.7941         calculate D2E/DX2 analytically  !
 ! A83   A(38,40,43)           120.4179         calculate D2E/DX2 analytically  !
 ! A84   A(38,40,44)           119.966          calculate D2E/DX2 analytically  !
 ! A85   A(43,40,44)           119.6041         calculate D2E/DX2 analytically  !
 ! A86   A(39,41,45)           120.3061         calculate D2E/DX2 analytically  !
 ! A87   A(39,41,46)           119.5135         calculate D2E/DX2 analytically  !
 ! A88   A(45,41,46)           120.1804         calculate D2E/DX2 analytically  !
 ! A89   A(40,43,45)           120.1579         calculate D2E/DX2 analytically  !
 ! A90   A(40,43,47)           119.6787         calculate D2E/DX2 analytically  !
 ! A91   A(45,43,47)           120.1608         calculate D2E/DX2 analytically  !
 ! A92   A(41,45,43)           119.729          calculate D2E/DX2 analytically  !
 ! A93   A(41,45,48)           120.1949         calculate D2E/DX2 analytically  !
 ! A94   A(43,45,48)           120.0761         calculate D2E/DX2 analytically  !
 ! A95   A(24,49,50)           122.2749         calculate D2E/DX2 analytically  !
 ! A96   A(24,49,51)           119.133          calculate D2E/DX2 analytically  !
 ! A97   A(50,49,51)           118.4901         calculate D2E/DX2 analytically  !
 ! A98   A(49,50,52)           120.5671         calculate D2E/DX2 analytically  !
 ! A99   A(49,50,53)           120.382          calculate D2E/DX2 analytically  !
 ! A100  A(52,50,53)           119.0476         calculate D2E/DX2 analytically  !
 ! A101  A(49,51,54)           120.9186         calculate D2E/DX2 analytically  !
 ! A102  A(49,51,55)           119.5428         calculate D2E/DX2 analytically  !
 ! A103  A(54,51,55)           119.5375         calculate D2E/DX2 analytically  !
 ! A104  A(50,52,56)           120.484          calculate D2E/DX2 analytically  !
 ! A105  A(50,52,57)           119.2115         calculate D2E/DX2 analytically  !
 ! A106  A(56,52,57)           120.3045         calculate D2E/DX2 analytically  !
 ! A107  A(51,54,56)           120.1604         calculate D2E/DX2 analytically  !
 ! A108  A(51,54,58)           119.6601         calculate D2E/DX2 analytically  !
 ! A109  A(56,54,58)           120.1794         calculate D2E/DX2 analytically  !
 ! A110  A(52,56,54)           119.3747         calculate D2E/DX2 analytically  !
 ! A111  A(52,56,59)           120.3677         calculate D2E/DX2 analytically  !
 ! A112  A(54,56,59)           120.2575         calculate D2E/DX2 analytically  !
 ! A113  A(24,60,61)           118.4423         calculate D2E/DX2 analytically  !
 ! A114  A(24,60,62)           123.0267         calculate D2E/DX2 analytically  !
 ! A115  A(61,60,62)           118.5049         calculate D2E/DX2 analytically  !
 ! A116  A(60,61,63)           120.8968         calculate D2E/DX2 analytically  !
 ! A117  A(60,61,64)           119.3561         calculate D2E/DX2 analytically  !
 ! A118  A(63,61,64)           119.7464         calculate D2E/DX2 analytically  !
 ! A119  A(60,62,65)           120.7097         calculate D2E/DX2 analytically  !
 ! A120  A(60,62,66)           119.7807         calculate D2E/DX2 analytically  !
 ! A121  A(65,62,66)           119.5039         calculate D2E/DX2 analytically  !
 ! A122  A(61,63,67)           120.0935         calculate D2E/DX2 analytically  !
 ! A123  A(61,63,68)           119.761          calculate D2E/DX2 analytically  !
 ! A124  A(67,63,68)           120.145          calculate D2E/DX2 analytically  !
 ! A125  A(62,65,67)           120.2761         calculate D2E/DX2 analytically  !
 ! A126  A(62,65,69)           119.6033         calculate D2E/DX2 analytically  !
 ! A127  A(67,65,69)           120.1205         calculate D2E/DX2 analytically  !
 ! A128  A(63,67,65)           119.518          calculate D2E/DX2 analytically  !
 ! A129  A(63,67,70)           120.2501         calculate D2E/DX2 analytically  !
 ! A130  A(65,67,70)           120.2313         calculate D2E/DX2 analytically  !
 ! A131  A(16,71,72)           112.2571         calculate D2E/DX2 analytically  !
 ! A132  A(16,71,73)           111.4959         calculate D2E/DX2 analytically  !
 ! A133  A(16,71,74)           109.9183         calculate D2E/DX2 analytically  !
 ! A134  A(72,71,73)           108.171          calculate D2E/DX2 analytically  !
 ! A135  A(72,71,74)           107.3941         calculate D2E/DX2 analytically  !
 ! A136  A(73,71,74)           107.3988         calculate D2E/DX2 analytically  !
 ! A137  A(16,75,76)           111.532          calculate D2E/DX2 analytically  !
 ! A138  A(16,75,77)           109.9651         calculate D2E/DX2 analytically  !
 ! A139  A(16,75,78)           111.353          calculate D2E/DX2 analytically  !
 ! A140  A(76,75,77)           108.0113         calculate D2E/DX2 analytically  !
 ! A141  A(76,75,78)           107.9032         calculate D2E/DX2 analytically  !
 ! A142  A(77,75,78)           107.9393         calculate D2E/DX2 analytically  !
 ! A143  A(16,79,80)           111.5261         calculate D2E/DX2 analytically  !
 ! A144  A(16,79,81)           109.1762         calculate D2E/DX2 analytically  !
 ! A145  A(16,79,82)           112.4018         calculate D2E/DX2 analytically  !
 ! A146  A(80,79,81)           108.0481         calculate D2E/DX2 analytically  !
 ! A147  A(80,79,82)           108.2953         calculate D2E/DX2 analytically  !
 ! A148  A(81,79,82)           107.2126         calculate D2E/DX2 analytically  !
 ! A149  A(8,83,84)            104.5008         calculate D2E/DX2 analytically  !
 ! A150  A(8,83,88)            108.3453         calculate D2E/DX2 analytically  !
 ! A151  A(8,83,92)            113.839          calculate D2E/DX2 analytically  !
 ! A152  A(84,83,88)           108.9901         calculate D2E/DX2 analytically  !
 ! A153  A(84,83,92)           110.1803         calculate D2E/DX2 analytically  !
 ! A154  A(88,83,92)           110.7242         calculate D2E/DX2 analytically  !
 ! A155  A(83,84,85)           112.0287         calculate D2E/DX2 analytically  !
 ! A156  A(83,84,86)           108.5387         calculate D2E/DX2 analytically  !
 ! A157  A(83,84,87)           111.5388         calculate D2E/DX2 analytically  !
 ! A158  A(85,84,86)           107.8985         calculate D2E/DX2 analytically  !
 ! A159  A(85,84,87)           108.5583         calculate D2E/DX2 analytically  !
 ! A160  A(86,84,87)           108.1406         calculate D2E/DX2 analytically  !
 ! A161  A(83,88,89)           110.7327         calculate D2E/DX2 analytically  !
 ! A162  A(83,88,90)           109.0988         calculate D2E/DX2 analytically  !
 ! A163  A(83,88,91)           111.4025         calculate D2E/DX2 analytically  !
 ! A164  A(89,88,90)           109.1943         calculate D2E/DX2 analytically  !
 ! A165  A(89,88,91)           108.2753         calculate D2E/DX2 analytically  !
 ! A166  A(90,88,91)           108.0744         calculate D2E/DX2 analytically  !
 ! A167  A(83,92,93)           110.967          calculate D2E/DX2 analytically  !
 ! A168  A(83,92,94)           112.5395         calculate D2E/DX2 analytically  !
 ! A169  A(83,92,95)           109.2361         calculate D2E/DX2 analytically  !
 ! A170  A(93,92,94)           108.4602         calculate D2E/DX2 analytically  !
 ! A171  A(93,92,95)           108.0942         calculate D2E/DX2 analytically  !
 ! A172  A(94,92,95)           107.3867         calculate D2E/DX2 analytically  !
 ! A173  A(1,96,97)            126.1577         calculate D2E/DX2 analytically  !
 ! A174  A(1,96,98)            114.9069         calculate D2E/DX2 analytically  !
 ! A175  A(97,96,98)           118.9347         calculate D2E/DX2 analytically  !
 ! A176  A(96,97,99)           119.568          calculate D2E/DX2 analytically  !
 ! A177  A(96,97,100)          119.8097         calculate D2E/DX2 analytically  !
 ! A178  A(99,97,100)          120.6221         calculate D2E/DX2 analytically  !
 ! A179  A(96,98,101)          120.6949         calculate D2E/DX2 analytically  !
 ! A180  A(96,98,102)          119.1536         calculate D2E/DX2 analytically  !
 ! A181  A(101,98,102)         120.1511         calculate D2E/DX2 analytically  !
 ! A182  A(97,99,103)          121.5052         calculate D2E/DX2 analytically  !
 ! A183  A(97,99,104)          118.5746         calculate D2E/DX2 analytically  !
 ! A184  A(103,99,104)         119.9199         calculate D2E/DX2 analytically  !
 ! A185  A(98,101,103)         120.4235         calculate D2E/DX2 analytically  !
 ! A186  A(98,101,105)         119.2558         calculate D2E/DX2 analytically  !
 ! A187  A(103,101,105)        120.3205         calculate D2E/DX2 analytically  !
 ! A188  A(99,103,101)         118.8728         calculate D2E/DX2 analytically  !
 ! A189  A(99,103,106)         120.5934         calculate D2E/DX2 analytically  !
 ! A190  A(101,103,106)        120.5333         calculate D2E/DX2 analytically  !
 ! D1    D(3,1,2,11)           -36.8683         calculate D2E/DX2 analytically  !
 ! D2    D(96,1,2,11)          140.479          calculate D2E/DX2 analytically  !
 ! D3    D(2,1,3,4)             -1.9641         calculate D2E/DX2 analytically  !
 ! D4    D(2,1,3,6)            177.878          calculate D2E/DX2 analytically  !
 ! D5    D(96,1,3,4)          -178.569          calculate D2E/DX2 analytically  !
 ! D6    D(96,1,3,6)             1.2731         calculate D2E/DX2 analytically  !
 ! D7    D(2,1,96,97)         -179.4205         calculate D2E/DX2 analytically  !
 ! D8    D(2,1,96,98)            0.8643         calculate D2E/DX2 analytically  !
 ! D9    D(3,1,96,97)           -2.8021         calculate D2E/DX2 analytically  !
 ! D10   D(3,1,96,98)          177.4826         calculate D2E/DX2 analytically  !
 ! D11   D(1,2,11,5)            38.4519         calculate D2E/DX2 analytically  !
 ! D12   D(1,2,11,10)          -77.9247         calculate D2E/DX2 analytically  !
 ! D13   D(1,3,4,5)              8.9402         calculate D2E/DX2 analytically  !
 ! D14   D(1,3,4,14)          -179.0175         calculate D2E/DX2 analytically  !
 ! D15   D(6,3,4,5)           -170.9093         calculate D2E/DX2 analytically  !
 ! D16   D(6,3,4,14)             1.133          calculate D2E/DX2 analytically  !
 ! D17   D(3,4,5,11)             0.5359         calculate D2E/DX2 analytically  !
 ! D18   D(14,4,5,11)         -172.0867         calculate D2E/DX2 analytically  !
 ! D19   D(3,4,14,15)           23.1052         calculate D2E/DX2 analytically  !
 ! D20   D(3,4,14,16)          138.9025         calculate D2E/DX2 analytically  !
 ! D21   D(3,4,14,17)          -95.1137         calculate D2E/DX2 analytically  !
 ! D22   D(5,4,14,15)         -164.9578         calculate D2E/DX2 analytically  !
 ! D23   D(5,4,14,16)          -49.1604         calculate D2E/DX2 analytically  !
 ! D24   D(5,4,14,17)           76.8233         calculate D2E/DX2 analytically  !
 ! D25   D(4,5,11,2)           -10.4091         calculate D2E/DX2 analytically  !
 ! D26   D(4,5,11,10)          139.3879         calculate D2E/DX2 analytically  !
 ! D27   D(9,7,8,26)          -171.4724         calculate D2E/DX2 analytically  !
 ! D28   D(9,7,8,83)            17.3188         calculate D2E/DX2 analytically  !
 ! D29   D(12,7,8,26)          -10.9624         calculate D2E/DX2 analytically  !
 ! D30   D(12,7,8,83)          177.8288         calculate D2E/DX2 analytically  !
 ! D31   D(8,7,9,18)           141.1597         calculate D2E/DX2 analytically  !
 ! D32   D(12,7,9,18)          -21.2469         calculate D2E/DX2 analytically  !
 ! D33   D(8,7,12,13)          -90.299          calculate D2E/DX2 analytically  !
 ! D34   D(8,7,12,27)          153.1187         calculate D2E/DX2 analytically  !
 ! D35   D(8,7,12,38)           25.5235         calculate D2E/DX2 analytically  !
 ! D36   D(9,7,12,13)           71.352          calculate D2E/DX2 analytically  !
 ! D37   D(9,7,12,27)          -45.2303         calculate D2E/DX2 analytically  !
 ! D38   D(9,7,12,38)         -172.8255         calculate D2E/DX2 analytically  !
 ! D39   D(7,8,83,84)          100.5993         calculate D2E/DX2 analytically  !
 ! D40   D(7,8,83,88)         -143.305          calculate D2E/DX2 analytically  !
 ! D41   D(7,8,83,92)          -19.6554         calculate D2E/DX2 analytically  !
 ! D42   D(26,8,83,84)         -70.5348         calculate D2E/DX2 analytically  !
 ! D43   D(26,8,83,88)          45.5609         calculate D2E/DX2 analytically  !
 ! D44   D(26,8,83,92)         169.2106         calculate D2E/DX2 analytically  !
 ! D45   D(7,9,18,17)         -112.0881         calculate D2E/DX2 analytically  !
 ! D46   D(7,12,27,28)         148.9195         calculate D2E/DX2 analytically  !
 ! D47   D(7,12,27,29)         -33.9672         calculate D2E/DX2 analytically  !
 ! D48   D(13,12,27,28)         36.4744         calculate D2E/DX2 analytically  !
 ! D49   D(13,12,27,29)       -146.4122         calculate D2E/DX2 analytically  !
 ! D50   D(38,12,27,28)        -83.7291         calculate D2E/DX2 analytically  !
 ! D51   D(38,12,27,29)         93.3842         calculate D2E/DX2 analytically  !
 ! D52   D(7,12,38,39)         -91.1762         calculate D2E/DX2 analytically  !
 ! D53   D(7,12,38,40)          89.3146         calculate D2E/DX2 analytically  !
 ! D54   D(13,12,38,39)         21.701          calculate D2E/DX2 analytically  !
 ! D55   D(13,12,38,40)       -157.8083         calculate D2E/DX2 analytically  !
 ! D56   D(27,12,38,39)        142.8392         calculate D2E/DX2 analytically  !
 ! D57   D(27,12,38,40)        -36.67           calculate D2E/DX2 analytically  !
 ! D58   D(4,14,16,71)        -177.6341         calculate D2E/DX2 analytically  !
 ! D59   D(4,14,16,75)         -59.916          calculate D2E/DX2 analytically  !
 ! D60   D(4,14,16,79)          60.8811         calculate D2E/DX2 analytically  !
 ! D61   D(15,14,16,71)        -62.27           calculate D2E/DX2 analytically  !
 ! D62   D(15,14,16,75)         55.4482         calculate D2E/DX2 analytically  !
 ! D63   D(15,14,16,79)        176.2452         calculate D2E/DX2 analytically  !
 ! D64   D(17,14,16,71)         58.8817         calculate D2E/DX2 analytically  !
 ! D65   D(17,14,16,75)        176.5999         calculate D2E/DX2 analytically  !
 ! D66   D(17,14,16,79)        -62.603          calculate D2E/DX2 analytically  !
 ! D67   D(4,14,17,18)         -50.9816         calculate D2E/DX2 analytically  !
 ! D68   D(4,14,17,19)         129.0992         calculate D2E/DX2 analytically  !
 ! D69   D(15,14,17,18)       -166.6732         calculate D2E/DX2 analytically  !
 ! D70   D(15,14,17,19)         13.4077         calculate D2E/DX2 analytically  !
 ! D71   D(16,14,17,18)         74.0253         calculate D2E/DX2 analytically  !
 ! D72   D(16,14,17,19)       -105.8938         calculate D2E/DX2 analytically  !
 ! D73   D(14,16,71,72)        -62.3806         calculate D2E/DX2 analytically  !
 ! D74   D(14,16,71,73)         59.1751         calculate D2E/DX2 analytically  !
 ! D75   D(14,16,71,74)        178.1567         calculate D2E/DX2 analytically  !
 ! D76   D(75,16,71,72)       -179.4273         calculate D2E/DX2 analytically  !
 ! D77   D(75,16,71,73)        -57.8717         calculate D2E/DX2 analytically  !
 ! D78   D(75,16,71,74)         61.11           calculate D2E/DX2 analytically  !
 ! D79   D(79,16,71,72)         61.6005         calculate D2E/DX2 analytically  !
 ! D80   D(79,16,71,73)       -176.8438         calculate D2E/DX2 analytically  !
 ! D81   D(79,16,71,74)        -57.8622         calculate D2E/DX2 analytically  !
 ! D82   D(14,16,75,76)         63.2315         calculate D2E/DX2 analytically  !
 ! D83   D(14,16,75,77)       -176.9674         calculate D2E/DX2 analytically  !
 ! D84   D(14,16,75,78)        -57.3713         calculate D2E/DX2 analytically  !
 ! D85   D(71,16,75,76)       -178.8928         calculate D2E/DX2 analytically  !
 ! D86   D(71,16,75,77)        -59.0916         calculate D2E/DX2 analytically  !
 ! D87   D(71,16,75,78)         60.5045         calculate D2E/DX2 analytically  !
 ! D88   D(79,16,75,76)        -60.0321         calculate D2E/DX2 analytically  !
 ! D89   D(79,16,75,77)         59.7691         calculate D2E/DX2 analytically  !
 ! D90   D(79,16,75,78)        179.3652         calculate D2E/DX2 analytically  !
 ! D91   D(14,16,79,80)         63.0911         calculate D2E/DX2 analytically  !
 ! D92   D(14,16,79,81)       -177.5825         calculate D2E/DX2 analytically  !
 ! D93   D(14,16,79,82)        -58.7513         calculate D2E/DX2 analytically  !
 ! D94   D(71,16,79,80)        -58.3461         calculate D2E/DX2 analytically  !
 ! D95   D(71,16,79,81)         60.9803         calculate D2E/DX2 analytically  !
 ! D96   D(71,16,79,82)        179.8114         calculate D2E/DX2 analytically  !
 ! D97   D(75,16,79,80)       -177.0024         calculate D2E/DX2 analytically  !
 ! D98   D(75,16,79,81)        -57.676          calculate D2E/DX2 analytically  !
 ! D99   D(75,16,79,82)         61.1551         calculate D2E/DX2 analytically  !
 ! D100  D(14,17,18,9)          57.711          calculate D2E/DX2 analytically  !
 ! D101  D(19,17,18,9)        -122.3712         calculate D2E/DX2 analytically  !
 ! D102  D(14,17,19,20)         -3.4626         calculate D2E/DX2 analytically  !
 ! D103  D(14,17,19,24)        177.509          calculate D2E/DX2 analytically  !
 ! D104  D(18,17,19,20)        176.6197         calculate D2E/DX2 analytically  !
 ! D105  D(18,17,19,24)         -2.4088         calculate D2E/DX2 analytically  !
 ! D106  D(17,19,20,21)       -158.0628         calculate D2E/DX2 analytically  !
 ! D107  D(17,19,20,22)        -40.5033         calculate D2E/DX2 analytically  !
 ! D108  D(17,19,20,23)         83.066          calculate D2E/DX2 analytically  !
 ! D109  D(24,19,20,21)         20.9718         calculate D2E/DX2 analytically  !
 ! D110  D(24,19,20,22)        138.5313         calculate D2E/DX2 analytically  !
 ! D111  D(24,19,20,23)        -97.8993         calculate D2E/DX2 analytically  !
 ! D112  D(17,19,24,25)        -13.3153         calculate D2E/DX2 analytically  !
 ! D113  D(17,19,24,49)        102.0518         calculate D2E/DX2 analytically  !
 ! D114  D(17,19,24,60)       -127.8116         calculate D2E/DX2 analytically  !
 ! D115  D(20,19,24,25)        167.587          calculate D2E/DX2 analytically  !
 ! D116  D(20,19,24,49)        -77.0459         calculate D2E/DX2 analytically  !
 ! D117  D(20,19,24,60)         53.0907         calculate D2E/DX2 analytically  !
 ! D118  D(19,24,49,50)         -6.0362         calculate D2E/DX2 analytically  !
 ! D119  D(19,24,49,51)        177.6931         calculate D2E/DX2 analytically  !
 ! D120  D(25,24,49,50)        107.4705         calculate D2E/DX2 analytically  !
 ! D121  D(25,24,49,51)        -68.8002         calculate D2E/DX2 analytically  !
 ! D122  D(60,24,49,50)       -133.6351         calculate D2E/DX2 analytically  !
 ! D123  D(60,24,49,51)         50.0942         calculate D2E/DX2 analytically  !
 ! D124  D(19,24,60,61)         80.0825         calculate D2E/DX2 analytically  !
 ! D125  D(19,24,60,62)        -98.0285         calculate D2E/DX2 analytically  !
 ! D126  D(25,24,60,61)        -32.383          calculate D2E/DX2 analytically  !
 ! D127  D(25,24,60,62)        149.5061         calculate D2E/DX2 analytically  !
 ! D128  D(49,24,60,61)       -151.2104         calculate D2E/DX2 analytically  !
 ! D129  D(49,24,60,62)         30.6787         calculate D2E/DX2 analytically  !
 ! D130  D(12,27,28,30)        177.0296         calculate D2E/DX2 analytically  !
 ! D131  D(12,27,28,31)         -2.7151         calculate D2E/DX2 analytically  !
 ! D132  D(29,27,28,30)         -0.1906         calculate D2E/DX2 analytically  !
 ! D133  D(29,27,28,31)       -179.9353         calculate D2E/DX2 analytically  !
 ! D134  D(12,27,29,32)       -177.0721         calculate D2E/DX2 analytically  !
 ! D135  D(12,27,29,33)          3.0813         calculate D2E/DX2 analytically  !
 ! D136  D(28,27,29,32)          0.0315         calculate D2E/DX2 analytically  !
 ! D137  D(28,27,29,33)       -179.8151         calculate D2E/DX2 analytically  !
 ! D138  D(27,28,30,34)          0.1438         calculate D2E/DX2 analytically  !
 ! D139  D(27,28,30,35)        179.952          calculate D2E/DX2 analytically  !
 ! D140  D(31,28,30,34)        179.8875         calculate D2E/DX2 analytically  !
 ! D141  D(31,28,30,35)         -0.3044         calculate D2E/DX2 analytically  !
 ! D142  D(27,29,32,34)          0.1749         calculate D2E/DX2 analytically  !
 ! D143  D(27,29,32,36)       -179.8911         calculate D2E/DX2 analytically  !
 ! D144  D(33,29,32,34)       -179.9776         calculate D2E/DX2 analytically  !
 ! D145  D(33,29,32,36)         -0.0436         calculate D2E/DX2 analytically  !
 ! D146  D(28,30,34,32)          0.0642         calculate D2E/DX2 analytically  !
 ! D147  D(28,30,34,37)       -179.9386         calculate D2E/DX2 analytically  !
 ! D148  D(35,30,34,32)       -179.743          calculate D2E/DX2 analytically  !
 ! D149  D(35,30,34,37)          0.2542         calculate D2E/DX2 analytically  !
 ! D150  D(29,32,34,30)         -0.2224         calculate D2E/DX2 analytically  !
 ! D151  D(29,32,34,37)        179.7804         calculate D2E/DX2 analytically  !
 ! D152  D(36,32,34,30)        179.8439         calculate D2E/DX2 analytically  !
 ! D153  D(36,32,34,37)         -0.1533         calculate D2E/DX2 analytically  !
 ! D154  D(12,38,39,41)       -179.3033         calculate D2E/DX2 analytically  !
 ! D155  D(12,38,39,42)          3.5509         calculate D2E/DX2 analytically  !
 ! D156  D(40,38,39,41)          0.2175         calculate D2E/DX2 analytically  !
 ! D157  D(40,38,39,42)       -176.9283         calculate D2E/DX2 analytically  !
 ! D158  D(12,38,40,43)        179.4666         calculate D2E/DX2 analytically  !
 ! D159  D(12,38,40,44)          0.736          calculate D2E/DX2 analytically  !
 ! D160  D(39,38,40,43)         -0.0431         calculate D2E/DX2 analytically  !
 ! D161  D(39,38,40,44)       -178.7737         calculate D2E/DX2 analytically  !
 ! D162  D(38,39,41,45)         -0.079          calculate D2E/DX2 analytically  !
 ! D163  D(38,39,41,46)        179.9354         calculate D2E/DX2 analytically  !
 ! D164  D(42,39,41,45)        177.0133         calculate D2E/DX2 analytically  !
 ! D165  D(42,39,41,46)         -2.9722         calculate D2E/DX2 analytically  !
 ! D166  D(38,40,43,45)         -0.271          calculate D2E/DX2 analytically  !
 ! D167  D(38,40,43,47)       -179.6738         calculate D2E/DX2 analytically  !
 ! D168  D(44,40,43,45)        178.4642         calculate D2E/DX2 analytically  !
 ! D169  D(44,40,43,47)         -0.9386         calculate D2E/DX2 analytically  !
 ! D170  D(39,41,45,43)         -0.2352         calculate D2E/DX2 analytically  !
 ! D171  D(39,41,45,48)        179.7127         calculate D2E/DX2 analytically  !
 ! D172  D(46,41,45,43)        179.7503         calculate D2E/DX2 analytically  !
 ! D173  D(46,41,45,48)         -0.3019         calculate D2E/DX2 analytically  !
 ! D174  D(40,43,45,41)          0.4096         calculate D2E/DX2 analytically  !
 ! D175  D(40,43,45,48)       -179.5383         calculate D2E/DX2 analytically  !
 ! D176  D(47,43,45,41)        179.8095         calculate D2E/DX2 analytically  !
 ! D177  D(47,43,45,48)         -0.1384         calculate D2E/DX2 analytically  !
 ! D178  D(24,49,50,52)       -177.1162         calculate D2E/DX2 analytically  !
 ! D179  D(24,49,50,53)          2.2158         calculate D2E/DX2 analytically  !
 ! D180  D(51,49,50,52)         -0.8226         calculate D2E/DX2 analytically  !
 ! D181  D(51,49,50,53)        178.5094         calculate D2E/DX2 analytically  !
 ! D182  D(24,49,51,54)        177.0034         calculate D2E/DX2 analytically  !
 ! D183  D(24,49,51,55)         -3.3674         calculate D2E/DX2 analytically  !
 ! D184  D(50,49,51,54)          0.5908         calculate D2E/DX2 analytically  !
 ! D185  D(50,49,51,55)       -179.78           calculate D2E/DX2 analytically  !
 ! D186  D(49,50,52,56)          0.4392         calculate D2E/DX2 analytically  !
 ! D187  D(49,50,52,57)       -179.6258         calculate D2E/DX2 analytically  !
 ! D188  D(53,50,52,56)       -178.9016         calculate D2E/DX2 analytically  !
 ! D189  D(53,50,52,57)          1.0334         calculate D2E/DX2 analytically  !
 ! D190  D(49,51,54,56)          0.0308         calculate D2E/DX2 analytically  !
 ! D191  D(49,51,54,58)        179.894          calculate D2E/DX2 analytically  !
 ! D192  D(55,51,54,56)       -179.5985         calculate D2E/DX2 analytically  !
 ! D193  D(55,51,54,58)          0.2647         calculate D2E/DX2 analytically  !
 ! D194  D(50,52,56,54)          0.1951         calculate D2E/DX2 analytically  !
 ! D195  D(50,52,56,59)       -179.9064         calculate D2E/DX2 analytically  !
 ! D196  D(57,52,56,54)       -179.7392         calculate D2E/DX2 analytically  !
 ! D197  D(57,52,56,59)          0.1593         calculate D2E/DX2 analytically  !
 ! D198  D(51,54,56,52)         -0.4275         calculate D2E/DX2 analytically  !
 ! D199  D(51,54,56,59)        179.6739         calculate D2E/DX2 analytically  !
 ! D200  D(58,54,56,52)        179.71           calculate D2E/DX2 analytically  !
 ! D201  D(58,54,56,59)         -0.1886         calculate D2E/DX2 analytically  !
 ! D202  D(24,60,61,63)       -177.871          calculate D2E/DX2 analytically  !
 ! D203  D(24,60,61,64)          2.434          calculate D2E/DX2 analytically  !
 ! D204  D(62,60,61,63)          0.3268         calculate D2E/DX2 analytically  !
 ! D205  D(62,60,61,64)       -179.3683         calculate D2E/DX2 analytically  !
 ! D206  D(24,60,62,65)        177.7975         calculate D2E/DX2 analytically  !
 ! D207  D(24,60,62,66)         -3.0717         calculate D2E/DX2 analytically  !
 ! D208  D(61,60,62,65)         -0.3123         calculate D2E/DX2 analytically  !
 ! D209  D(61,60,62,66)        178.8184         calculate D2E/DX2 analytically  !
 ! D210  D(60,61,63,67)         -0.1101         calculate D2E/DX2 analytically  !
 ! D211  D(60,61,63,68)       -179.8534         calculate D2E/DX2 analytically  !
 ! D212  D(64,61,63,67)        179.5838         calculate D2E/DX2 analytically  !
 ! D213  D(64,61,63,68)         -0.1596         calculate D2E/DX2 analytically  !
 ! D214  D(60,62,65,67)          0.0821         calculate D2E/DX2 analytically  !
 ! D215  D(60,62,65,69)       -179.9776         calculate D2E/DX2 analytically  !
 ! D216  D(66,62,65,67)       -179.051          calculate D2E/DX2 analytically  !
 ! D217  D(66,62,65,69)          0.8893         calculate D2E/DX2 analytically  !
 ! D218  D(61,63,67,65)         -0.1266         calculate D2E/DX2 analytically  !
 ! D219  D(61,63,67,70)       -179.8581         calculate D2E/DX2 analytically  !
 ! D220  D(68,63,67,65)        179.6158         calculate D2E/DX2 analytically  !
 ! D221  D(68,63,67,70)         -0.1158         calculate D2E/DX2 analytically  !
 ! D222  D(62,65,67,63)          0.1405         calculate D2E/DX2 analytically  !
 ! D223  D(62,65,67,70)        179.8721         calculate D2E/DX2 analytically  !
 ! D224  D(69,65,67,63)       -179.7995         calculate D2E/DX2 analytically  !
 ! D225  D(69,65,67,70)         -0.0679         calculate D2E/DX2 analytically  !
 ! D226  D(8,83,84,85)          56.8487         calculate D2E/DX2 analytically  !
 ! D227  D(8,83,84,86)         175.8851         calculate D2E/DX2 analytically  !
 ! D228  D(8,83,84,87)         -65.0761         calculate D2E/DX2 analytically  !
 ! D229  D(88,83,84,85)        -58.7978         calculate D2E/DX2 analytically  !
 ! D230  D(88,83,84,86)         60.2386         calculate D2E/DX2 analytically  !
 ! D231  D(88,83,84,87)        179.2774         calculate D2E/DX2 analytically  !
 ! D232  D(92,83,84,85)        179.5207         calculate D2E/DX2 analytically  !
 ! D233  D(92,83,84,86)        -61.443          calculate D2E/DX2 analytically  !
 ! D234  D(92,83,84,87)         57.5959         calculate D2E/DX2 analytically  !
 ! D235  D(8,83,88,89)          65.0463         calculate D2E/DX2 analytically  !
 ! D236  D(8,83,88,90)        -174.7497         calculate D2E/DX2 analytically  !
 ! D237  D(8,83,88,91)         -55.5171         calculate D2E/DX2 analytically  !
 ! D238  D(84,83,88,89)        178.1938         calculate D2E/DX2 analytically  !
 ! D239  D(84,83,88,90)        -61.6023         calculate D2E/DX2 analytically  !
 ! D240  D(84,83,88,91)         57.6304         calculate D2E/DX2 analytically  !
 ! D241  D(92,83,88,89)        -60.4555         calculate D2E/DX2 analytically  !
 ! D242  D(92,83,88,90)         59.7485         calculate D2E/DX2 analytically  !
 ! D243  D(92,83,88,91)        178.9812         calculate D2E/DX2 analytically  !
 ! D244  D(8,83,92,93)         -61.0849         calculate D2E/DX2 analytically  !
 ! D245  D(8,83,92,94)          60.6628         calculate D2E/DX2 analytically  !
 ! D246  D(8,83,92,95)         179.838          calculate D2E/DX2 analytically  !
 ! D247  D(84,83,92,93)       -178.0891         calculate D2E/DX2 analytically  !
 ! D248  D(84,83,92,94)        -56.3414         calculate D2E/DX2 analytically  !
 ! D249  D(84,83,92,95)         62.8338         calculate D2E/DX2 analytically  !
 ! D250  D(88,83,92,93)         61.2649         calculate D2E/DX2 analytically  !
 ! D251  D(88,83,92,94)       -176.9874         calculate D2E/DX2 analytically  !
 ! D252  D(88,83,92,95)        -57.8122         calculate D2E/DX2 analytically  !
 ! D253  D(1,96,97,99)         179.9699         calculate D2E/DX2 analytically  !
 ! D254  D(1,96,97,100)         -0.2034         calculate D2E/DX2 analytically  !
 ! D255  D(98,96,97,99)         -0.3252         calculate D2E/DX2 analytically  !
 ! D256  D(98,96,97,100)       179.5015         calculate D2E/DX2 analytically  !
 ! D257  D(1,96,98,101)        179.992          calculate D2E/DX2 analytically  !
 ! D258  D(1,96,98,102)          0.2287         calculate D2E/DX2 analytically  !
 ! D259  D(97,96,98,101)         0.2547         calculate D2E/DX2 analytically  !
 ! D260  D(97,96,98,102)      -179.5086         calculate D2E/DX2 analytically  !
 ! D261  D(96,97,99,103)         0.1578         calculate D2E/DX2 analytically  !
 ! D262  D(96,97,99,104)       179.9473         calculate D2E/DX2 analytically  !
 ! D263  D(100,97,99,103)     -179.6675         calculate D2E/DX2 analytically  !
 ! D264  D(100,97,99,104)        0.122          calculate D2E/DX2 analytically  !
 ! D265  D(96,98,101,103)       -0.0099         calculate D2E/DX2 analytically  !
 ! D266  D(96,98,101,105)     -179.8722         calculate D2E/DX2 analytically  !
 ! D267  D(102,98,101,103)     179.751          calculate D2E/DX2 analytically  !
 ! D268  D(102,98,101,105)      -0.1112         calculate D2E/DX2 analytically  !
 ! D269  D(97,99,103,101)        0.0879         calculate D2E/DX2 analytically  !
 ! D270  D(97,99,103,106)      179.8302         calculate D2E/DX2 analytically  !
 ! D271  D(104,99,103,101)    -179.6988         calculate D2E/DX2 analytically  !
 ! D272  D(104,99,103,106)       0.0434         calculate D2E/DX2 analytically  !
 ! D273  D(98,101,103,99)       -0.1616         calculate D2E/DX2 analytically  !
 ! D274  D(98,101,103,106)    -179.904          calculate D2E/DX2 analytically  !
 ! D275  D(105,101,103,99)     179.6992         calculate D2E/DX2 analytically  !
 ! D276  D(105,101,103,106)     -0.0432         calculate D2E/DX2 analytically  !
 --------------------------------------------------------------------------------
 Trust Radius=5.00D-02 FncErr=1.00D-07 GrdErr=1.00D-06 EigMax=2.50D+02 EigMin=1.00D-04
 Number of steps in this run=    587 maximum allowed number of steps=    636.
 Search for a saddle point of order  1.
 GradGradGradGradGradGradGradGradGradGradGradGradGradGradGradGradGradGrad

 Leave Link  103 at Mon Oct  9 11:50:16 2017, MaxMem=  1342177280 cpu:               2.8 elap:               0.1
 (Enter /n/sw/g16_nehalem/g16/l202.exe)
 Stoichiometry    C46H53N5OS
 Framework group  C1[X(C46H53N5OS)]
 Deg. of freedom   312
 Full point group                 C1      NOp   1
 Largest Abelian subgroup         C1      NOp   1
 Largest concise Abelian subgroup C1      NOp   1
                         Standard orientation:                         
 ---------------------------------------------------------------------
 Center     Atomic      Atomic             Coordinates (Angstroms)
 Number     Number       Type             X           Y           Z
 ---------------------------------------------------------------------
      1          7           0       -3.734597   -1.315531   -1.036434
      2          1           0       -3.669999   -0.316980   -1.279588
      3          6           0       -2.568396   -1.994864   -1.232936
      4          7           0       -1.601359   -1.177329   -1.752103
      5          1           0       -1.817986   -0.178181   -1.787087
      6         16           0       -2.287533   -3.637253   -0.894698
      7          7           0       -0.164171    2.358932    0.606028
      8          6           0       -1.193146    2.606561    1.341854
      9          1           0        0.105693    1.380746    0.404074
     10          6           0       -2.679719    2.544822   -1.114457
     11          7           0       -2.978904    1.468668   -1.491294
     12          6           0        0.447502    3.350616   -0.328671
     13          1           0       -0.091080    3.167321   -1.267124
     14          6           0       -0.255769   -1.594323   -2.095474
     15          1           0       -0.308045   -2.668117   -2.259976
     16          6           0        0.223885   -0.953420   -3.448409
     17          6           0        0.682562   -1.288300   -0.904864
     18          8           0        0.680772   -0.149664   -0.402787
     19          7           0        1.497590   -2.268225   -0.424836
     20          6           0        1.509045   -3.653469   -0.913408
     21          1           0        1.935572   -4.286168   -0.134566
     22          1           0        0.491713   -4.001777   -1.100525
     23          1           0        2.123989   -3.760367   -1.812998
     24          6           0        2.424640   -1.926657    0.679787
     25          1           0        2.404744   -0.834800    0.711403
     26          1           0       -1.501261    3.646895    1.393833
     27          6           0        1.924074    3.045065   -0.525476
     28          6           0        2.513903    3.358617   -1.756595
     29          6           0        2.725982    2.518779    0.493940
     30          6           0        3.877255    3.154548   -1.964021
     31          1           0        1.900296    3.768853   -2.554661
     32          6           0        4.091691    2.310520    0.286815
     33          1           0        2.286725    2.266226    1.455343
     34          6           0        4.671469    2.629922   -0.941671
     35          1           0        4.318399    3.402518   -2.925451
     36          1           0        4.700764    1.899587    1.087255
     37          1           0        5.734395    2.471247   -1.101524
     38          6           0        0.181614    4.797470    0.086588
     39          6           0       -0.950105    5.458413   -0.414470
     40          6           0        1.048273    5.483639    0.949210
     41          6           0       -1.203510    6.784752   -0.059186
     42          1           0       -1.646144    4.907669   -1.042245
     43          6           0        0.789294    6.807298    1.304322
     44          1           0        1.938312    4.990862    1.328497
     45          6           0       -0.335063    7.462550    0.797532
     46          1           0       -2.082665    7.286198   -0.454536
     47          1           0        1.471878    7.329344    1.969514
     48          1           0       -0.531530    8.496347    1.069174
     49          6           0        1.924689   -2.422603    2.039899
     50          6           0        0.663995   -3.008843    2.204597
     51          6           0        2.721319   -2.216264    3.177844
     52          6           0        0.219356   -3.394596    3.472983
     53          1           0        0.012644   -3.160505    1.348740
     54          6           0        2.275710   -2.596489    4.442508
     55          1           0        3.701712   -1.759048    3.070110
     56          6           0        1.021283   -3.192929    4.594893
     57          1           0       -0.760559   -3.853219    3.574664
     58          1           0        2.909971   -2.428682    5.309303
     59          1           0        0.674450   -3.494850    5.579611
     60          6           0        3.854315   -2.340589    0.320761
     61          6           0        4.600772   -1.503112   -0.520921
     62          6           0        4.436991   -3.534982    0.762818
     63          6           0        5.891892   -1.852012   -0.916353
     64          1           0        4.165741   -0.567435   -0.864016
     65          6           0        5.729691   -3.886500    0.368566
     66          1           0        3.884861   -4.189676    1.430660
     67          6           0        6.460925   -3.047786   -0.473004
     68          1           0        6.454810   -1.187966   -1.567228
     69          1           0        6.164228   -4.817862    0.722078
     70          1           0        7.467624   -3.321055   -0.777686
     71          6           0        1.632818   -1.483711   -3.781970
     72          1           0        2.373057   -1.200147   -3.025075
     73          1           0        1.639461   -2.576316   -3.874297
     74          1           0        1.969663   -1.071770   -4.740199
     75          6           0       -0.750877   -1.409569   -4.553471
     76          1           0       -1.764361   -1.040658   -4.372081
     77          1           0       -0.419758   -1.026778   -5.526166
     78          1           0       -0.796890   -2.503289   -4.618788
     79          6           0        0.262491    0.586665   -3.410275
     80          1           0        0.983129    0.951702   -2.673864
     81          1           0        0.562697    0.964145   -4.395717
     82          1           0       -0.715641    1.023283   -3.180042
     83          6           0       -1.883782    1.646383    2.265236
     84          6           0       -1.351995    2.016491    3.681580
     85          1           0       -1.538201    3.067993    3.928815
     86          1           0       -1.872914    1.399500    4.421264
     87          1           0       -0.277725    1.822245    3.771210
     88          6           0       -3.403154    1.925453    2.209643
     89          1           0       -3.800337    1.705427    1.217172
     90          1           0       -3.910369    1.295756    2.948146
     91          1           0       -3.626453    2.972806    2.444910
     92          6           0       -1.591144    0.172455    1.958719
     93          1           0       -1.928945   -0.092434    0.954272
     94          1           0       -0.527254   -0.070049    2.041712
     95          1           0       -2.127136   -0.458084    2.674911
     96          6           0       -4.995777   -1.669339   -0.515712
     97          6           0       -5.384803   -2.946904   -0.084689
     98          6           0       -5.926019   -0.612503   -0.443485
     99          6           0       -6.675372   -3.143636    0.410600
    100          1           0       -4.685947   -3.768673   -0.141295
    101          6           0       -7.207451   -0.827509    0.051227
    102          1           0       -5.630940    0.377144   -0.784038
    103          6           0       -7.594277   -2.097852    0.485474
    104          1           0       -6.959976   -4.140270    0.739312
    105          1           0       -7.906672    0.003793    0.094488
    106          1           0       -8.595788   -2.268232    0.870972
 ---------------------------------------------------------------------
 Rotational constants (GHZ):           0.0531003           0.0481851           0.0346282
 Leave Link  202 at Mon Oct  9 11:50:16 2017, MaxMem=  1342177280 cpu:               3.9 elap:               0.1
 (Enter /n/sw/g16_nehalem/g16/l301.exe)
 Standard basis: 6-31G(d) (6D, 7F)
 Ernie: Thresh=  0.10000D-02 Tol=  0.10000D-05 Strict=F.
 There are   905 symmetry adapted cartesian basis functions of A   symmetry.
 There are   905 symmetry adapted basis functions of A   symmetry.
   905 basis functions,  1720 primitive gaussians,   905 cartesian basis functions
   194 alpha electrons      194 beta electrons
       nuclear repulsion energy      7662.8485876032 Hartrees.
 IExCor=  402 DFT=T Ex+Corr=B3LYP ExCW=0 ScaHFX=  0.200000
[...]
 ,-0.00000580,0.00000012,-0.00000472,0.00000375,0.00000331,-0.00001006,
 0.00000852,-0.00000116,0.00000120,-0.00000355,0.00000103,0.00000477,0.
 00000156,0.00000188,-0.00000281,0.00000062,-0.00000057,-0.00000079,0.0
 0000098,-0.00000099,0.00000542,-0.00001695,-0.00000332,-0.00000718,-0.
 00000553,0.00000626,-0.00000805,0.00000610,0.00000210,0.00000690,0.000
 00186,-0.00000377,-0.00000004,-0.00000785,-0.00000436,-0.00000550,0.00
 000247,0.00000137,0.00000308,0.00000145,-0.00000090,-0.00000236,-0.000
 00446,-0.00153157,0.00112919,0.00166383,-0.00086002,0.00008544,0.00021
 162,-0.00478651,0.00724532,0.00078279,-0.00323215,-0.00408937,0.002939
 93,0.00001546,0.00003562,-0.00021597,0.13596884,-0.22404436,-0.0145816
 0,0.00001317,0.00077892,-0.00086966,0.02124625,-0.01720247,-0.00400023
 ,0.00114792,-0.00108380,-0.00016581,-0.14748795,0.23585075,0.00054521,
 -0.00052793,0.00034455,-0.00001604,-0.00008139,0.00001788,-0.00005857,
 0.00014131,-0.00013807,0.00008963,-0.00002996,-0.00007411,0.00000621,-
 0.00002351,0.00001551,0.00001633,-0.00002629,0.00003744,0.00001057,0.0
 0000689,-0.00001717,-0.00000478,-0.00001559,0.00003978,-0.00000331,-0.
 00000051,0.00000388,-0.00000879,0.00001794,-0.00001423,-0.00001435,0.0
 0003758,-0.00001948,-0.00000836,-0.00001274,0.00000261,0.00000528,0.00
 000325,-0.00000109,-0.00001820,0.00002327,0.00000066,-0.00000146,-0.00
 000120,0.00000233,0.00000530,-0.00000600,0.00001208,-0.00000279,0.0000
 0560,-0.00000734,0.00000855,-0.00000220,-0.00000627,0.00001019,-0.0000
 0356,0.00000227,-0.00000127,0.00000287,0.00000157,0.00000005,-0.000000
 21,0.00000061,-0.00000395,0.00000113,0.00000179,0.00000195,-0.00000029
 ,-0.00000126,-0.00000605,-0.00000167,0.00000228,-0.00000076,0.00000023
 ,-0.00000028,-0.00000219,-0.00000153,0.00000194,-0.00000066,0.00000328
 ,-0.00000174,0.00000250,-0.00000074,0.00000193,-0.00000012,-0.00000008
 ,0.00000186,-0.00000009,-0.00000006,-0.00000004,-0.00000053,0.00000001
 ,-0.00000008,-0.00000036,0.00000091,-0.00000094,-0.00000051,-0.0000004
 1,-0.00000156,0.00000018,0.00000028,-0.00000032,0.00000073,-0.00000007
 ,-0.00000060,-0.00000037,-0.00000022,-0.00000004,0.00000036,-0.0000002
 8,-0.00000015,0.00000288,-0.00000017,-0.00000160,0.00000289,0.00000393
 ,0.00000034,-0.00000219,0.00000056,-0.00000261,0.00000309,-0.00000273,
 -0.00000032,0.00000128,-0.00000205,0.00000272,-0.00000087,0.00000089,-
 0.00000136,-0.00000112,-0.00000049,0.00000024,0.00000050,0.00000105,-0
 .00000014,-0.00000095,0.00000142,0.00000114,-0.00000061,-0.00000006,0.
 00000047,-0.00000029,0.,0.00000083,0.00000136,-0.00000115,0.00000288,0
 .00000080,-0.00000137,-0.00000216,-0.00000018,-0.00000063,-0.00000039,
 0.00000039,-0.00000181,-0.00000030,-0.00000224,0.00000107,0.00000017,0
 .00000005,-0.00000064,-0.00000026,0.00000076,0.00000087,0.00000031,0.0
 0000104,-0.00000071,-0.00000050,0.00000008,0.00000234,-0.00000013,0.00
 000007,0.00000052,0.00000054,-0.00000072,0.00000096,-0.00000027,-0.000
 00265,0.00000062,-0.00000017,0.00000135,-0.00000128,-0.00000011,0.0000
 0129,-0.00000027,-0.00000058,-0.00000016,-0.00000048,0.00000024,-0.000
 00052,-0.00000020,0.00000045,-0.00000037,0.00000073,-0.00000051,-0.000
 00051,0.00000119,-0.00000001,0.00000034,-0.00000005,-0.00000026,0.0000
 0057,0.00000047,-0.00000033,0.00000033,-0.00000041,0.00000023,0.000000
 77,-0.00000011,-0.00000011,-0.00000062,0.00000373,-0.00000665,-0.00000
 200,-0.00000063,0.00000010,-0.00000032,0.00000012,0.00000133,0.0000035
 4,0.00000035,-0.00000266,0.00000346,0.00000146,-0.00000294,0.00000036,
 -0.00000097,0.00000548,0.00000241,0.00000044,-0.00000407,-0.00000052,0
 .00000018,0.00000134,0.00000095,-0.00000102,-0.00000366,-0.00000206,-0
 .00000074,0.00000018,0.00000264,0.00000221,-0.00000313,0.00000040,-0.0
 0000158,0.00000347,-0.00000340,0.00000651,-0.00001262,0.00000437,0.000
 00379,0.00000110,-0.00000191,0.00000001,0.00000156,-0.00000369,0.00000
 218,-0.00000552,0.00000446,-0.00000041,0.00000041,0.00000178,-0.000010
 20,0.00002222,0.00000155,-0.00000174,0.00002511,-0.00001330,0.00000841
 ,-0.00002761,-0.00000058,0.00000069,0.00000082,0.00000516,-0.00000009,
 0.00000140,-0.00000426,-0.00000366,0.00000308,0.00000519,0.00000065,0.
 00000080,-0.00000365,0.00000514,-0.00000548,0.00373952,0.00185968,0.00
 594378,0.00021246,0.00024298,-0.00055440,0.00651594,-0.00938021,0.0012
 9349,0.00253538,0.00242142,0.00536117,-0.00036872,-0.00021231,-0.00098
 007,0.02267024,-0.01428878,-0.04038672,-0.00164049,-0.00072002,-0.0034
 9794,-0.00619490,0.00613925,0.00333416,-0.00021738,0.00042232,0.000385
 62,-0.02651414,0.01487832,0.03196598,-0.00037023,-0.00008447,-0.000256
 12,0.00005365,0.00009221,-0.00000977,0.00031360,0.00004677,-0.00017399
 ,-0.00020416,-0.00012397,0.00014276,-0.00000483,0.00004139,-0.00000254
 ,-0.00029878,0.00002130,0.00003602,-0.00003510,-0.00001284,-0.00001119
 ,0.00003114,-0.00000778,0.00003654,0.00000476,0.00001870,0.00001703,-0
 .00000809,0.00000658,-0.00001555,-0.00008440,-0.00013234,0.00001322,0.
 00001609,0.00002580,-0.00000504,0.00000765,0.00000322,-0.00000017,0.00
 007834,-0.00003316,0.00000352,0.00001010,0.00000149,-0.00001381,-0.000
 00618,0.00001162,-0.00002577,0.00005257,-0.00000487,0.00006255,-0.0000
 3927,-0.00002526,-0.00004209,-0.00005001,0.00000943,-0.00003634,-0.000
 00170,0.00000002,0.00000309,-0.00000386,0.00000214,-0.00000397,0.00003
 192,-0.00001070,-0.00000160,-0.00000625,-0.00000203,0.00000201,0.00002
 881,0.00001513,0.00002439,0.00000443,-0.00000403,-0.00000166,0.0000001
 2,0.00000332,-0.00000137,0.00000168,-0.00000520,-0.00000167,-0.0000030
 0,-0.00000247,-0.00000176,-0.00000378,-0.00000210,0.00000076,0.0000008
 8,-0.00000096,-0.00000267,0.00000095,0.00000340,-0.00000088,0.00000103
 ,-0.00000240,0.00000150,0.00000176,0.00000172,0.00000270,0.00000059,-0
 .00000110,-0.00000045,-0.00000008,0.00000111,0.00000124,-0.00000039,0.
 00000173,-0.00000034,-0.00000121,0.00000139,0.00000050,-0.00000308,-0.
 00000073,-0.00000026,-0.00000046,-0.00000338,0.00000420,0.00000349,-0.
 00000221,0.00000159,-0.00000574,0.00000009,-0.00000368,0.00000510,0.00
 001260,-0.00000213,0.00000104,-0.00000102,0.00000027,-0.00000011,0.000
 00166,0.00000033,0.00000041,0.00000021,-0.00000053,0.00000125,0.000000
 17,0.00000106,-0.00000153,-0.00000148,-0.00000131,-0.00000011,-0.00000
 284,-0.00000088,-0.00001141,-0.00000270,-0.00000667,0.00000750,0.00000
 400,0.00001097,0.00000383,0.00000256,-0.00000442,-0.00000804,-0.000002
 82,-0.00000246,0.00000865,-0.00000098,0.00000618,-0.00000151,-0.000000
 33,-0.00000256,-0.00000146,-0.00000106,0.00000014,-0.00000114,-0.00000
 124,0.00000330,0.00000161,-0.00000048,0.00000643,-0.00000235,-0.000000
 70,-0.00000306,-0.00000053,0.00000083,-0.00000546,0.00000536,-0.000002
 61,-0.00000845,-0.00000377,-0.00000019,-0.00000166,-0.00000620,-0.0000
 0234,0.00000132,0.00000117,0.00000179,-0.00000240,0.00000221,0.0000033
 2,0.00000037,0.00000077,-0.00000281,0.00000049,0.00000188,-0.00000108,
 0.00000193,-0.00000091,0.00000032,-0.00000029,-0.00000036,-0.00000080,
 0.00000144,-0.00000112,0.00000233,-0.00000005,-0.00000212,0.00000081,0
 .00000108,0.00000344,-0.00000880,0.00001273,-0.00000202,0.00000008,-0.
 00000302,0.00000183,0.00000071,-0.00000267,-0.00000769,-0.00000140,0.0
 0000655,0.00000321,-0.00000527,0.00000174,-0.00000575,0.00000653,-0.00
 000964,-0.00000717,-0.00000355,0.00000918,0.00000220,-0.00000188,-0.00
 000604,0.00000366,-0.00000030,0.00001065,-0.00000245,0.00000061,-0.000
 00286,-0.00000506,-0.00000601,0.00000753,-0.00000024,0.00000670,-0.000
 00439,-0.00000183,0.00000758,-0.00001300,-0.00000004,-0.00000113,0.000
 00801,-0.00000095,-0.00000540,-0.00000216,-0.00000116,0.00000303,-0.00
 000176,-0.00000128,0.00000070,-0.00000230,-0.00000097,-0.00000531,0.00
 002391,0.00000647,0.00001341,0.00000106,-0.00000294,0.00000763,-0.0000
 0056,-0.00000435,-0.00000929,-0.00000446,0.00000165,-0.00000252,0.0000
 1530,0.00000793,0.00000737,-0.00000536,-0.00000347,-0.00000398,-0.0000
 0211,0.00000303,0.00000214,0.00000533,0.00070359,0.00050339,-0.0003895
 3,0.00012786,0.00431538,0.00163149,0.00205137,-0.00143238,0.00185849,-
 0.01494374,-0.00640614,0.00661634,-0.00050416,-0.00048421,0.00045634,-
 0.00488274,0.00081392,0.00188080,-0.00027420,0.00014250,0.00025350,-0.
 29418492,-0.04071865,0.09763784,0.00045089,0.00004289,-0.00148083,0.00
 035896,-0.00057115,-0.00129387,0.31159997,-0.00029211,0.00036380,-0.00
 015441,0.00015004,-0.00005450,-0.00003776,0.00009395,-0.00025977,0.000
 00837,-0.00002901,0.00005970,0.00001079,0.00002514,-0.00001737,-0.0000
 0560,0.00015761,0.00011100,-0.00006257,-0.00002609,0.00000042,-0.00000
 354,0.00002462,-0.00000312,0.00002077,0.00000674,-0.00000822,0.0000012
 1,-0.00000485,0.00001593,-0.00000425,-0.00012039,-0.00003325,0.0000176
 5,0.00000724,0.00001044,-0.00000180,0.00000609,0.00000041,-0.00000039,
 0.00001208,0.00000232,-0.00000392,-0.00000940,-0.00000122,0.00000891,-
 0.00000560,0.00000562,0.00000650,0.00000061,-0.00002570,0.00000114,-0.
 00000389,0.00001751,0.00000488,-0.00000333,0.00000624,-0.00000486,0.00
 000323,-0.00000238,-0.00000323,0.00000096,0.00000084,0.00000021,-0.000
 01035,0.00000420,0.00000215,0.00000230,0.00000115,0.00000070,-0.000000
 22,0.00000061,0.00000051,0.00000097,-0.00000011,0.00000028,-0.00000067
 ,0.00000267,-0.00000125,0.00000246,-0.00000245,-0.00000157,-0.00000140
 ,-0.00000006,-0.00000021,-0.00000185,0.00000027,0.00000027,0.00000010,
 0.00000002,-0.00000028,0.00000045,0.00000041,-0.00000046,0.00000014,0.
 ,0.00000041,0.00000080,-0.00000017,0.00000077,-0.00000058,0.00000014,0
 .00000011,-0.00000026,0.00000009,0.00000031,-0.00000047,0.00000017,-0.
 00000029,-0.00000046,0.00000011,0.00000010,-0.00000104,-0.00000117,-0.
 00000036,0.00000060,-0.00000120,0.00000330,0.00000120,-0.00000039,0.00
 000073,-0.00000328,0.00000041,-0.00000228,0.00000331,0.00000706,-0.000
 00114,-0.00000007,-0.00000063,-0.00000038,-0.00000023,0.00000022,-0.00
 000024,0.00000047,0.00000005,-0.00000032,0.00000041,0.00000013,0.00000
 075,-0.00000057,-0.00000051,-0.00000037,-0.00000036,-0.00000123,-0.000
 00041,-0.00000002,0.00000007,0.00000112,-0.00000109,-0.00000006,-0.000
 00162,0.00000035,0.00000040,-0.00000024,0.00000062,0.00000015,0.000000
 61,-0.00000151,-0.00000047,-0.00000186,0.00000038,0.00000004,0.0000004
 0,0.00000023,-0.00000003,0.00000022,-0.00000011,-0.00000030,0.00000020
 ,-0.00000017,0.00000035,-0.00000043,-0.00000011,0.00000003,-0.00000007
 ,0.00000011,0.00000034,0.00000012,-0.00000006,0.00000026,-0.00000021,0
 .00000019,-0.00000072,0.00000045,0.,0.00000008,0.00000007,0.00000008,0
 .00000016,-0.00000019,-0.00000008,0.00000010,-0.00000008,-0.00000023,0
 .00000016,0.,-0.00000004,0.00000017,-0.00000013,0.00000013,0.,-0.00000
 016,0.00000017,-0.00000007,0.,0.00000003,0.00000011,0.,-0.00000008,0.0
 0000010,0.00000005,-0.00000016,0.00000032,0.00000007,-0.00000062,-0.00
 000041,-0.00000014,-0.00000051,0.00000108,0.00000070,-0.00000005,0.000
 00019,-0.00000021,0.00000330,-0.00000106,-0.00000167,-0.00000080,-0.00
 000038,-0.00000031,-0.00000069,0.00000025,-0.00000039,-0.00000062,0.00
 000132,0.00000078,0.00000523,-0.00000042,-0.00000372,-0.00000045,-0.00
 000012,0.00000012,-0.00000074,0.00000201,0.00000037,0.00000039,-0.0000
 0059,-0.00000234,0.00000335,-0.00000374,-0.00000877,-0.00000276,0.0000
 0337,0.00000354,-0.00000041,-0.00000142,0.00000038,-0.00000069,0.00000
 104,-0.00000115,-0.00000144,-0.00000041,-0.00000249,0.00000241,-0.0000
 0102,0.00002204,0.00001004,0.00001055,0.00000480,-0.00000279,0.0000049
 4,-0.00000270,-0.00000574,-0.00000547,-0.00000441,-0.00000095,0.000001
 25,0.00000519,0.00000555,-0.00000467,-0.00000124,-0.00000245,-0.000001
 36,-0.00000299,0.00000085,-0.00000009,-0.00000078,0.00045393,-0.001385
 49,0.00002590,0.00285525,-0.00356632,0.00071180,-0.00007075,-0.0051024
 0,0.00205288,0.02347243,0.00873155,-0.00936816,0.00096374,0.00044647,-
 0.00036155,-0.02903172,0.00032008,0.01015473,-0.00142801,-0.00006146,0
 .00059507,-0.04064398,-0.06720831,0.01996554,-0.00077300,0.00088078,-0
 .00049806,0.00026786,0.00098163,-0.00088764,0.04394113,0.06575896,-0.0
 0023366,-0.00026761,-0.00092960,-0.00002841,0.00000335,0.00004260,-0.0
 0020807,-0.00002532,-0.00013262,0.00010019,0.00003806,0.00005330,0.000
 00347,-0.00000112,0.00001135,0.00010649,-0.00003656,-0.00006104,0.0000
 2542,0.00000599,-0.00000732,-0.00002214,-0.00000501,0.00000951,-0.0000
 0639,-0.00000072,-0.00000057,0.00000498,-0.00000171,-0.00000552,0.0000
 4548,0.00003845,-0.00001546,-0.00001246,-0.00001783,0.00000435,-0.0000
 0093,0.00000152,-0.00000047,-0.00002127,0.00003676,0.00003027,-0.00001
 062,-0.00001686,0.00001179,-0.00000334,0.00000961,0.00001613,-0.000006
 27,-0.00000942,-0.00001766,0.00001450,-0.00000114,-0.00000376,0.000019
 75,-0.00000787,0.00000742,0.00000121,0.00000460,-0.00000105,0.00000085
 ,-0.00000040,0.00000140,-0.00001010,0.00000549,0.00000708,0.00000398,0
 .00000073,-0.00000183,-0.00001286,-0.00000434,0.00000139,-0.00000104,0
 .00000069,-0.00000050,-0.00000105,-0.00000249,0.00000169,-0.00000214,0
 .00000433,0.00000003,0.00000306,-0.00000010,0.00000156,0.00000155,0.00
 000021,0.00000107,-0.00000039,0.,0.00000085,-0.00000090,-0.00000069,0.
 00000041,-0.00000048,0.00000121,-0.00000116,-0.00000097,-0.00000061,-0
 .00000216,0.00000017,0.00000038,-0.00000019,0.00000071,-0.00000020,-0.
 00000098,-0.00000010,-0.00000066,0.00000021,0.00000088,-0.00000059,-0.
 00000023,0.00000328,0.00000125,-0.00000105,0.00000171,0.00000281,-0.00
 000228,-0.00000226,0.00000096,-0.00000226,0.00000395,-0.00000109,0.000
 00113,-0.00000233,-0.00000629,0.00000242,-0.00000059,0.00000093,-0.000
 00087,-0.00000058,-0.00000075,0.00000043,0.00000033,0.00000002,-0.0000
 0007,-0.00000116,0.00000009,0.00000028,0.00000027,0.00000044,0.0000009
 8,-0.00000021,0.00000116,0.00000097,0.00000444,-0.00000070,0.00000541,
 0.,-0.00000163,-0.00000504,-0.00000014,-0.00000069,0.00000031,-0.00000
 053,-0.00000270,0.00000091,-0.00000482,0.00000051,-0.00000192,0.000000
 20,-0.00000062,0.00000006,0.00000144,0.00000135,0.00000031,0.00000200,
 -0.00000020,-0.00000116,-0.00000026,0.00000300,-0.00000136,0.00000086,
 0.00000078,0.00000133,-0.00000111,0.00000071,0.00000040,-0.00000421,0.
 00000128,0.00000081,0.00000211,-0.00000139,0.00000003,0.00000240,-0.00
 000014,-0.00000086,-0.00000023,-0.00000087,0.00000066,-0.00000087,-0.0
 0000077,0.00000049,-0.00000056,0.00000148,-0.00000078,-0.00000101,0.00
 000172,-0.00000030,0.00000044,-0.00000011,-0.00000019,0.00000066,0.000
 00075,-0.00000063,0.00000060,-0.00000098,0.00000035,0.00000138,-0.0000
 0027,-0.00000036,-0.00000209,0.00000153,-0.00000243,-0.00000159,-0.000
 00095,0.00000041,0.00000037,-0.00000097,0.00000169,0.00000197,0.000001
 27,-0.00000295,0.00000016,0.00000281,-0.00000143,0.00000086,-0.0000004
 7,0.00000534,0.00000212,0.00000112,-0.00000442,0.00000043,-0.00000123,
 0.00000161,-0.00000173,0.00000111,-0.00000681,-0.00000145,-0.00000165,
 0.00000061,0.00000287,0.00000338,-0.00000419,0.00000057,-0.00000151,0.
 00000358,-0.00000278,0.00000155,-0.00000253,0.00000307,0.00000060,-0.0
 0000051,-0.00000079,0.00000205,0.00000093,-0.00000143,0.00000011,-0.00
 000337,0.00000343,-0.00000039,0.00000123,-0.00000367,-0.00000154,-0.00
 000420,-0.00000810,-0.00001175,0.00000531,-0.00000093,-0.00000058,-0.0
 0000871,0.00000422,0.00000571,0.00000358,0.00000016,-0.00000232,-0.000
 00006,-0.00000608,-0.00000110,0.00000363,0.00000461,0.00000220,0.00000
 144,-0.00000274,0.00000207,-0.00000597,-0.00036928,0.00006230,-0.00009
 845,0.00191740,0.00021677,0.00614579,0.00156752,0.00249734,0.00577041,
 0.00170454,0.00095786,0.00040431,0.00017932,0.00016272,0.00040470,0.00
 698533,-0.00008104,-0.00137871,0.00051253,0.00005409,0.00032780,0.0974
 8185,0.01993910,-0.06920938,-0.00134071,-0.00076819,-0.00320469,-0.001
 43809,-0.00059974,-0.00306374,-0.10694617,-0.02219240,0.06490177\\-0.0
 0000094,-0.00000033,0.00000020,-0.00000012,-0.00000081,0.00000003,-0.0
 0000117,0.00000003,-0.00000046,0.00000068,0.00000015,-0.00000027,0.000
 00050,-0.00000059,-0.00000004,0.00000261,0.00000007,-0.00000030,0.0000
 0570,-0.00000098,0.00000057,-0.00000314,0.00000243,-0.00000108,-0.0000
 0233,0.,-0.00000051,-0.00000222,-0.00000334,-0.00000288,0.00000013,0.0
 0000101,-0.00000048,-0.00000116,-0.00000040,0.00000065,0.00000022,0.00
 000040,0.00000003,0.00000044,-0.00000002,0.00000022,0.00000020,-0.0000
 0031,-0.00000001,0.00000013,-0.00000055,0.00000018,0.00000030,-0.00000
 079,0.00000126,0.00000115,0.00000065,-0.00000066,0.00000007,-0.0000001
 4,0.00000030,-0.00000010,0.00000007,0.00000052,-0.00000015,-0.00000008
 ,0.00000070,-0.00000004,-0.00000032,0.00000044,0.00000012,-0.00000039,
 0.00000048,-0.00000018,0.00000019,0.00000032,-0.00000021,0.00000021,0.
 00000026,0.00000093,-0.00000015,0.00000059,-0.00000039,-0.00000025,0.0
 0000009,0.00000043,-0.00000004,-0.00000038,0.00000003,-0.00000018,0.00
 000006,0.00000034,-0.00000015,-0.00000021,0.00000021,-0.00000034,-0.00
 000042,-0.00000021,-0.00000038,-0.00000002,-0.00000030,0.00000023,-0.0
 0000004,0.00000021,-0.00000065,-0.00000008,0.00000027,-0.00000048,0.,-
 0.00000006,0.00000006,0.00000017,0.00000022,-0.00000007,0.00000022,-0.
 00000031,0.00000023,-0.00000120,0.00000047,0.00000145,-0.00000126,0.00
 000014,0.00000006,-0.00000049,0.00000066,-0.00000012,-0.00000054,0.000
 00066,0.00000056,0.00000008,-0.00000008,0.00000044,-0.00000066,0.00000
 021,0.00000008,-0.00000035,-0.00000019,0.00000009,-0.00000093,0.000000
 22,-0.00000005,-0.00000098,0.00000003,0.00000018,-0.00000069,0.0000001
 3,0.00000012,-0.00000096,-0.00000008,0.00000021,0.00000042,-0.00000077
 ,0.00000030,0.00000046,-0.00000010,0.00000004,0.00000071,-0.00000032,0
 .00000038,0.00000056,-0.00000008,0.00000042,0.00000030,-0.00000039,0.0
 0000046,0.00000046,-0.00000019,0.00000034,0.00000046,-0.00000043,0.000
 00055,0.00000036,-0.00000032,0.00000043,0.00000037,-0.00000047,0.00000
 055,0.00000047,-0.00000051,0.00000063,0.00000041,-0.00000012,0.0000003
 6,0.00000057,0.00000036,-0.00000002,0.00000059,0.00000003,-0.00000031,
 0.00000070,0.00000014,-0.00000027,0.00000076,0.00000006,0.00000016,0.0
 0000060,0.00000008,0.,0.00000076,-0.00000026,0.00000006,0.00000086,-0.
 00000013,-0.00000013,0.00000088,0.00000006,-0.00000029,0.00000072,-0.0
 0000017,-0.00000001,0.00000108,-0.00000004,-0.00000021,0.00000101,0.00
 000033,-0.00000047,0.00000030,0.00000016,-0.00000045,0.00000042,0.0000
 0026,-0.00000040,0.00000042,0.00000038,-0.00000055,0.00000026,0.000000
 30,-0.00000046,0.00000011,0.00000035,-0.00000047,-0.00000006,0.0000004
 4,-0.00000063,0.00000004,0.00000034,-0.00000047,0.00000021,0.00000025,
 -0.00000039,-0.00000007,0.00000047,-0.00000051,-0.00000001,0.00000039,
 -0.00000049,-0.00000009,0.00000004,-0.00000056,-0.00000040,-0.00000047
 ,0.00000096,-0.00000029,-0.00000058,0.00000020,-0.00000051,0.,0.000000
 39,-0.00000046,-0.00000035,0.00000061,-0.00000027,-0.00000014,0.000000
 59,-0.00000005,-0.00000049,-0.00000038,-0.00000007,0.00000023,0.000000
 14,0.00000038,-0.00000016,0.00000036,-0.00000025,-0.00000003,0.0000002
 5,-0.00000083,-0.00000006,0.00000062,0.00000012,0.00000003,-0.00000015
 ,-0.00000003,-0.00000014,-0.00000009,-0.00000041,-0.00000027,0.0000003
 3,-0.00000024,0.00000127,-0.00000044,-0.00000021,-0.00000135,-0.000000
 84,0.00000026,-0.00000006,0.00000039,-0.00000040,-0.00000039,0.0000009
 5,-0.00000022,-0.00000091,0.00000054,0.00000012,0.00000065,0.00000037,
 -0.00000071,-0.00000021,0.00000017,-0.00000070,-0.00000049,-0.00000014
 ,-0.00000020,-0.00000010,0.00000012,-0.00000013,0.00000002,0.00000015,
 -0.00000062,-0.00000021,0.00000027,-0.00000042\\\@


 THOSE WHO TRY TO PASS CHEMISTRY OFF AS A NEW SCIENCE
 SHOW HOW LITTLE KNOWLEDGE THEY HAVE OF THE CHARACTER
 AND LITERATURE OF THE ANCIENTS.
   -- NICOLAS LEFEVRE
 "COURS DE CHYMIE" J.-N.LELOUP, PARIS, 1751
 Job cpu time:       1 days 22 hours 47 minutes 10.3 seconds.
 Elapsed time:       0 days  1 hours 18 minutes  5.7 seconds.
 File lengths (MBytes):  RWF=   9214 Int=      0 D2E=      0 Chk=     72 Scr=      1
 Normal termination of Gaussian 16 at Mon Oct  9 14:38:48 2017.
