 Entering Gaussian System, Link 0=g09
 Input=endo-b972-dz-pcm.gjf
 Output=endo-b972-dz-pcm.out
 Initial command:
 /n/sw/g09_D.01/g09/l1.exe "/scratch/ekwan_endo-b972-dz-pcm/Gau-39808.inp" -scrdir="/scratch/ekwan_endo-b972-dz-pcm/"
 Entering Link 1 = /n/sw/g09_D.01/g09/l1.exe PID=     39809.
  
 Copyright (c) 1988,1990,1992,1993,1995,1998,2003,2009,2013,
            Gaussian, Inc.  All Rights Reserved.
  
 This is part of the Gaussian(R) 09 program.  It is based on
 the Gaussian(R) 03 system (copyright 2003, Gaussian, Inc.),
 the Gaussian(R) 98 system (copyright 1998, Gaussian, Inc.),
 the Gaussian(R) 94 system (copyright 1995, Gaussian, Inc.),
 the Gaussian 92(TM) system (copyright 1992, Gaussian, Inc.),
 the Gaussian 90(TM) system (copyright 1990, Gaussian, Inc.),
 the Gaussian 88(TM) system (copyright 1988, Gaussian, Inc.),
 the Gaussian 86(TM) system (copyright 1986, Carnegie Mellon
 University), and the Gaussian 82(TM) system (copyright 1983,
 Carnegie Mellon University). Gaussian is a federally registered
 trademark of Gaussian, Inc.
  
 This software contains proprietary and confidential information,
 including trade secrets, belonging to Gaussian, Inc.
  
 This software is provided under written license and may be
 used, copied, transmitted, or stored only in accord with that
 written license.
  
 The following legend is applicable only to US Government
 contracts under FAR:
  
                    RESTRICTED RIGHTS LEGEND
  
 Use, reproduction and disclosure by the US Government is
 subject to restrictions as set forth in subparagraphs (a)
 and (c) of the Commercial Computer Software - Restricted
 Rights clause in FAR 52.227-19.
  
 Gaussian, Inc.
 340 Quinnipiac St., Bldg. 40, Wallingford CT 06492
  
  
 ---------------------------------------------------------------
 Warning -- This program may not be used in any manner that
 competes with the business of Gaussian, Inc. or will provide
 assistance to any competitor of Gaussian, Inc.  The licensee
 of this program is prohibited from giving any competitor of
 Gaussian, Inc. access to this program.  By using this program,
 the user acknowledges that Gaussian, Inc. is engaged in the
 business of creating and licensing software in the field of
 computational chemistry and represents and warrants to the
 licensee that it is not a competitor of Gaussian, Inc. and that
 it will not use this program in any manner prohibited above.
 ---------------------------------------------------------------
  

 Cite this work as:
 Gaussian 09, Revision D.01,
 M. J. Frisch, G. W. Trucks, H. B. Schlegel, G. E. Scuseria, 
 M. A. Robb, J. R. Cheeseman, G. Scalmani, V. Barone, B. Mennucci, 
 G. A. Petersson, H. Nakatsuji, M. Caricato, X. Li, H. P. Hratchian, 
 A. F. Izmaylov, J. Bloino, G. Zheng, J. L. Sonnenberg, M. Hada, 
 M. Ehara, K. Toyota, R. Fukuda, J. Hasegawa, M. Ishida, T. Nakajima, 
 Y. Honda, O. Kitao, H. Nakai, T. Vreven, J. A. Montgomery, Jr., 
 J. E. Peralta, F. Ogliaro, M. Bearpark, J. J. Heyd, E. Brothers, 
 K. N. Kudin, V. N. Staroverov, T. Keith, R. Kobayashi, J. Normand, 
 K. Raghavachari, A. Rendell, J. C. Burant, S. S. Iyengar, J. Tomasi, 
 M. Cossi, N. Rega, J. M. Millam, M. Klene, J. E. Knox, J. B. Cross, 
 V. Bakken, C. Adamo, J. Jaramillo, R. Gomperts, R. E. Stratmann, 
 O. Yazyev, A. J. Austin, R. Cammi, C. Pomelli, J. W. Ochterski, 
 R. L. Martin, K. Morokuma, V. G. Zakrzewski, G. A. Voth, 
 P. Salvador, J. J. Dannenberg, S. Dapprich, A. D. Daniels, 
 O. Farkas, J. B. Foresman, J. V. Ortiz, J. Cioslowski, 
 and D. J. Fox, Gaussian, Inc., Wallingford CT, 2013.
 
 ******************************************
 Gaussian 09:  EM64L-G09RevD.01 24-Apr-2013
                28-Jun-2016 
 ******************************************
 %chk=checkpoint.chk
 %nprocshared=4
 Will use up to    4 processors via shared memory.
 %mem=2GB
 ----------------------------------------------------------------------
 #p opt=(modredundant,maxcycles=200) pop=none b972 cc-pVDZ scrf=(solven
 t=o-xylene,pcm)
 ----------------------------------------------------------------------
 1/6=200,14=-1,18=120,19=15,26=3,38=1/1,3;
 2/9=110,12=2,17=6,18=5,40=1/2;
 3/5=16,11=2,16=1,25=1,30=1,70=2201,71=1,72=158,74=-21/1,2,3;
 4//1;
 5/5=2,38=5,53=158/2;
 7//1,2,3,16;
 1/6=200,14=-1,18=20,19=15,26=3/3(2);
 2/9=110/2;
 99//99;
 2/9=110/2;
 3/5=16,11=2,16=1,25=1,30=1,70=2205,71=1,72=158,74=-21/1,2,3;
 4/5=5,16=3,69=1/1;
 5/5=2,38=5,53=158/2;
 7//1,2,3,16;
 1/6=200,14=-1,18=20,19=15,26=3/3(-5);
 2/9=110/2;
 99/9=1/99;
 Leave Link    1 at Tue Jun 28 22:16:22 2016, MaxMem=   268435456 cpu:         0.6
 (Enter /n/sw/g09_D.01/g09/l101.exe)
 -----
 title
 -----
 Symbolic Z-matrix:
 Charge =  0 Multiplicity = 1
 6                     1.73352  -0.64888  -0.12666 
 6                     1.6999   -0.11377   1.15809 
 6                     0.84812  -1.69905  -0.46099 
 6                    -0.0629   -2.23433   0.42825 
 6                    -1.29305  -0.34501   1.02792 
 6                    -0.37847   0.66129   1.32764 
 1                     1.46113  -0.73836   2.01157 
 1                     0.73976  -1.945    -1.51565 
 1                     0.1375   -2.26558   1.49318 
 1                    -0.82199  -2.92713   0.07762 
 6                     2.52213   0.05097  -1.21109 
 1                     2.31998   1.12855  -1.20669 
 1                     3.60057  -0.07892  -1.05706 
 1                     2.27497  -0.33671  -2.20366 
 1                     2.2862    0.77242   1.387 
 1                    -0.15127   1.04654   2.31299 
 1                    -1.86546  -0.93378   1.73163 
 6                    -0.30954   1.55905   0.14579 
 8                     0.28621   2.59108  -0.01705 
 8                    -1.08155   0.98693  -0.86125 
 6                    -1.80573  -0.09806  -0.33321 
 8                    -2.66782  -0.64243  -0.96737 
 
 Add virtual bond connecting atoms C5         and C4         Dist= 4.41D+00.
 Add virtual bond connecting atoms C6         and C2         Dist= 4.20D+00.
 The following ModRedundant input section has been read:
 B       2       6 F                                                           
 B       4       5 F                                                           
 
 NAtoms=     22 NQM=       22 NQMF=       0 NMMI=      0 NMMIF=      0
                NMic=       0 NMicF=      0.
                    Isotopes and Nuclear Properties:
 (Nuclear quadrupole moments (NQMom) in fm**2, nuclear magnetic moments (NMagM)
  in nuclear magnetons)

  Atom         1           2           3           4           5           6           7           8           9          10
 IAtWgt=          12          12          12          12          12          12           1           1           1           1
 AtmWgt=  12.0000000  12.0000000  12.0000000  12.0000000  12.0000000  12.0000000   1.0078250   1.0078250   1.0078250   1.0078250
 NucSpn=           0           0           0           0           0           0           1           1           1           1
 AtZEff=   0.0000000   0.0000000   0.0000000   0.0000000   0.0000000   0.0000000   0.0000000   0.0000000   0.0000000   0.0000000
 NQMom=    0.0000000   0.0000000   0.0000000   0.0000000   0.0000000   0.0000000   0.0000000   0.0000000   0.0000000   0.0000000
 NMagM=    0.0000000   0.0000000   0.0000000   0.0000000   0.0000000   0.0000000   2.7928460   2.7928460   2.7928460   2.7928460
 AtZNuc=   6.0000000   6.0000000   6.0000000   6.0000000   6.0000000   6.0000000   1.0000000   1.0000000   1.0000000   1.0000000

  Atom        11          12          13          14          15          16          17          18          19          20
 IAtWgt=          12           1           1           1           1           1           1          12          16          16
 AtmWgt=  12.0000000   1.0078250   1.0078250   1.0078250   1.0078250   1.0078250   1.0078250  12.0000000  15.9949146  15.9949146
 NucSpn=           0           1           1           1           1           1           1           0           0           0
 AtZEff=   0.0000000   0.0000000   0.0000000   0.0000000   0.0000000   0.0000000   0.0000000   0.0000000   0.0000000   0.0000000
 NQMom=    0.0000000   0.0000000   0.0000000   0.0000000   0.0000000   0.0000000   0.0000000   0.0000000   0.0000000   0.0000000
 NMagM=    0.0000000   2.7928460   2.7928460   2.7928460   2.7928460   2.7928460   2.7928460   0.0000000   0.0000000   0.0000000
 AtZNuc=   6.0000000   1.0000000   1.0000000   1.0000000   1.0000000   1.0000000   1.0000000   6.0000000   8.0000000   8.0000000

  Atom        21          22
 IAtWgt=          12          16
 AtmWgt=  12.0000000  15.9949146
 NucSpn=           0           0
 AtZEff=   0.0000000   0.0000000
 NQMom=    0.0000000   0.0000000
 NMagM=    0.0000000   0.0000000
 AtZNuc=   6.0000000   8.0000000
 Leave Link  101 at Tue Jun 28 22:16:23 2016, MaxMem=   268435456 cpu:         0.8
 (Enter /n/sw/g09_D.01/g09/l103.exe)

 GradGradGradGradGradGradGradGradGradGradGradGradGradGradGradGradGradGrad
 Berny optimization.
 Initialization pass.
                           ----------------------------
                           !    Initial Parameters    !
                           ! (Angstroms and Degrees)  !
 --------------------------                            --------------------------
 ! Name  Definition              Value          Derivative Info.                !
 --------------------------------------------------------------------------------
 ! R1    R(1,2)                  1.3921         estimate D2E/DX2                !
 ! R2    R(1,3)                  1.4137         estimate D2E/DX2                !
 ! R3    R(1,11)                 1.5125         estimate D2E/DX2                !
 ! R4    R(2,6)                  2.2247         Frozen                          !
 ! R5    R(2,7)                  1.0842         estimate D2E/DX2                !
 ! R6    R(2,15)                 1.087          estimate D2E/DX2                !
 ! R7    R(3,4)                  1.381          estimate D2E/DX2                !
 ! R8    R(3,8)                  1.0884         estimate D2E/DX2                !
 ! R9    R(4,5)                  2.3329         Frozen                          !
 ! R10   R(4,9)                  1.0841         estimate D2E/DX2                !
 ! R11   R(4,10)                 1.0859         estimate D2E/DX2                !
 ! R12   R(5,6)                  1.3925         estimate D2E/DX2                !
 ! R13   R(5,17)                 1.0814         estimate D2E/DX2                !
 ! R14   R(5,21)                 1.4753         estimate D2E/DX2                !
 ! R15   R(6,16)                 1.0821         estimate D2E/DX2                !
 ! R16   R(6,18)                 1.4858         estimate D2E/DX2                !
 ! R17   R(11,12)                1.0964         estimate D2E/DX2                !
 ! R18   R(11,13)                1.0971         estimate D2E/DX2                !
 ! R19   R(11,14)                1.0939         estimate D2E/DX2                !
 ! R20   R(18,19)                1.2027         estimate D2E/DX2                !
 ! R21   R(18,20)                1.3919         estimate D2E/DX2                !
 ! R22   R(20,21)                1.4073         estimate D2E/DX2                !
 ! R23   R(21,22)                1.2007         estimate D2E/DX2                !
 ! A1    A(2,1,3)              119.2527         estimate D2E/DX2                !
 ! A2    A(2,1,11)             119.7623         estimate D2E/DX2                !
 ! A3    A(3,1,11)             120.0469         estimate D2E/DX2                !
 ! A4    A(1,2,6)              103.1094         estimate D2E/DX2                !
 ! A5    A(1,2,7)              120.6867         estimate D2E/DX2                !
 ! A6    A(1,2,15)             119.6504         estimate D2E/DX2                !
 ! A7    A(6,2,7)               86.271          estimate D2E/DX2                !
 ! A8    A(6,2,15)             101.7614         estimate D2E/DX2                !
 ! A9    A(7,2,15)             115.0035         estimate D2E/DX2                !
 ! A10   A(1,3,4)              123.2844         estimate D2E/DX2                !
 ! A11   A(1,3,8)              117.3479         estimate D2E/DX2                !
 ! A12   A(4,3,8)              118.0791         estimate D2E/DX2                !
 ! A13   A(3,4,5)              101.5057         estimate D2E/DX2                !
 ! A14   A(3,4,9)              121.4501         estimate D2E/DX2                !
 ! A15   A(3,4,10)             120.0345         estimate D2E/DX2                !
 ! A16   A(5,4,9)               82.4329         estimate D2E/DX2                !
 ! A17   A(5,4,10)             103.3606         estimate D2E/DX2                !
 ! A18   A(9,4,10)             115.3429         estimate D2E/DX2                !
 ! A19   A(4,5,6)              107.1129         estimate D2E/DX2                !
 ! A20   A(4,5,17)              90.3128         estimate D2E/DX2                !
 ! A21   A(4,5,21)              94.6834         estimate D2E/DX2                !
 ! A22   A(6,5,17)             126.9444         estimate D2E/DX2                !
 ! A23   A(6,5,21)             107.8104         estimate D2E/DX2                !
 ! A24   A(17,5,21)            120.5011         estimate D2E/DX2                !
 ! A25   A(2,6,5)              110.2088         estimate D2E/DX2                !
 ! A26   A(2,6,16)              89.844          estimate D2E/DX2                !
 ! A27   A(2,6,18)              96.1162         estimate D2E/DX2                !
 ! A28   A(5,6,16)             126.2418         estimate D2E/DX2                !
 ! A29   A(5,6,18)             107.2132         estimate D2E/DX2                !
 ! A30   A(16,6,18)            119.9644         estimate D2E/DX2                !
 ! A31   A(1,11,12)            110.8401         estimate D2E/DX2                !
 ! A32   A(1,11,13)            110.921          estimate D2E/DX2                !
 ! A33   A(1,11,14)            111.6402         estimate D2E/DX2                !
 ! A34   A(12,11,13)           107.28           estimate D2E/DX2                !
 ! A35   A(12,11,14)           108.0779         estimate D2E/DX2                !
 ! A36   A(13,11,14)           107.911          estimate D2E/DX2                !
 ! A37   A(6,18,19)            130.4792         estimate D2E/DX2                !
 ! A38   A(6,18,20)            107.5421         estimate D2E/DX2                !
 ! A39   A(19,18,20)           121.9697         estimate D2E/DX2                !
 ! A40   A(18,20,21)           109.3197         estimate D2E/DX2                !
 ! A41   A(5,21,20)            107.2421         estimate D2E/DX2                !
 ! A42   A(5,21,22)            131.3683         estimate D2E/DX2                !
 ! A43   A(20,21,22)           121.3888         estimate D2E/DX2                !
 ! D1    D(3,1,2,6)            -60.4471         estimate D2E/DX2                !
 ! D2    D(3,1,2,7)             33.0243         estimate D2E/DX2                !
 ! D3    D(3,1,2,15)          -172.3718         estimate D2E/DX2                !
 ! D4    D(11,1,2,6)           108.4777         estimate D2E/DX2                !
 ! D5    D(11,1,2,7)          -158.051          estimate D2E/DX2                !
 ! D6    D(11,1,2,15)           -3.4471         estimate D2E/DX2                !
 ! D7    D(2,1,3,4)             -0.041          estimate D2E/DX2                !
 ! D8    D(2,1,3,8)            166.724          estimate D2E/DX2                !
 ! D9    D(11,1,3,4)          -168.9336         estimate D2E/DX2                !
 ! D10   D(11,1,3,8)            -2.1687         estimate D2E/DX2                !
 ! D11   D(2,1,11,12)          -46.1013         estimate D2E/DX2                !
 ! D12   D(2,1,11,13)           72.9628         estimate D2E/DX2                !
 ! D13   D(2,1,11,14)         -166.6476         estimate D2E/DX2                !
 ! D14   D(3,1,11,12)          122.7345         estimate D2E/DX2                !
 ! D15   D(3,1,11,13)         -118.2013         estimate D2E/DX2                !
 ! D16   D(3,1,11,14)            2.1883         estimate D2E/DX2                !
 ! D17   D(1,2,6,5)             53.8691         estimate D2E/DX2                !
 ! D18   D(1,2,6,16)          -177.1563         estimate D2E/DX2                !
 ! D19   D(1,2,6,18)           -57.0218         estimate D2E/DX2                !
 ! D20   D(7,2,6,5)            -66.7903         estimate D2E/DX2                !
 ! D21   D(7,2,6,16)            62.1843         estimate D2E/DX2                !
 ! D22   D(7,2,6,18)          -177.6812         estimate D2E/DX2                !
 ! D23   D(15,2,6,5)           178.433          estimate D2E/DX2                !
 ! D24   D(15,2,6,16)          -52.5925         estimate D2E/DX2                !
 ! D25   D(15,2,6,18)           67.542          estimate D2E/DX2                !
 ! D26   D(1,3,4,5)             57.377          estimate D2E/DX2                !
 ! D27   D(1,3,4,9)            -30.7299         estimate D2E/DX2                !
 ! D28   D(1,3,4,10)           170.3365         estimate D2E/DX2                !
 ! D29   D(8,3,4,5)           -109.2973         estimate D2E/DX2                !
 ! D30   D(8,3,4,9)            162.5958         estimate D2E/DX2                !
 ! D31   D(8,3,4,10)             3.6622         estimate D2E/DX2                !
 ! D32   D(3,4,5,6)            -47.4353         estimate D2E/DX2                !
 ! D33   D(3,4,5,17)          -176.5277         estimate D2E/DX2                !
 ! D34   D(3,4,5,21)            62.8278         estimate D2E/DX2                !
 ! D35   D(9,4,5,6)             73.2347         estimate D2E/DX2                !
 ! D36   D(9,4,5,17)           -55.8577         estimate D2E/DX2                !
 ! D37   D(9,4,5,21)          -176.5022         estimate D2E/DX2                !
 ! D38   D(10,4,5,6)          -172.4188         estimate D2E/DX2                !
 ! D39   D(10,4,5,17)           58.4888         estimate D2E/DX2                !
 ! D40   D(10,4,5,21)          -62.1557         estimate D2E/DX2                !
 ! D41   D(4,5,6,2)             -2.5224         estimate D2E/DX2                !
 ! D42   D(4,5,6,16)          -107.9622         estimate D2E/DX2                !
 ! D43   D(4,5,6,18)           100.9453         estimate D2E/DX2                !
 ! D44   D(17,5,6,2)           101.2868         estimate D2E/DX2                !
 ! D45   D(17,5,6,16)           -4.1531         estimate D2E/DX2                !
 ! D46   D(17,5,6,18)         -155.2455         estimate D2E/DX2                !
 ! D47   D(21,5,6,2)          -103.3962         estimate D2E/DX2                !
 ! D48   D(21,5,6,16)          151.164          estimate D2E/DX2                !
 ! D49   D(21,5,6,18)            0.0715         estimate D2E/DX2                !
 ! D50   D(4,5,21,20)         -104.1306         estimate D2E/DX2                !
 ! D51   D(4,5,21,22)           76.2092         estimate D2E/DX2                !
 ! D52   D(6,5,21,20)            5.5285         estimate D2E/DX2                !
 ! D53   D(6,5,21,22)         -174.1318         estimate D2E/DX2                !
 ! D54   D(17,5,21,20)         162.7385         estimate D2E/DX2                !
 ! D55   D(17,5,21,22)         -16.9217         estimate D2E/DX2                !
 ! D56   D(2,6,18,19)          -71.235          estimate D2E/DX2                !
 ! D57   D(2,6,18,20)          107.6663         estimate D2E/DX2                !
 ! D58   D(5,6,18,19)          175.38           estimate D2E/DX2                !
 ! D59   D(5,6,18,20)           -5.7187         estimate D2E/DX2                !
 ! D60   D(16,6,18,19)          22.1254         estimate D2E/DX2                !
 ! D61   D(16,6,18,20)        -158.9732         estimate D2E/DX2                !
 ! D62   D(6,18,20,21)           9.3237         estimate D2E/DX2                !
 ! D63   D(19,18,20,21)       -171.6614         estimate D2E/DX2                !
 ! D64   D(18,20,21,5)          -9.2718         estimate D2E/DX2                !
 ! D65   D(18,20,21,22)        170.4296         estimate D2E/DX2                !
 --------------------------------------------------------------------------------
 Trust Radius=3.00D-01 FncErr=1.00D-07 GrdErr=1.00D-06
 Number of steps in this run=    132 maximum allowed number of steps=    132.
 GradGradGradGradGradGradGradGradGradGradGradGradGradGradGradGradGradGrad

 Leave Link  103 at Tue Jun 28 22:16:23 2016, MaxMem=   268435456 cpu:         0.1
 (Enter /n/sw/g09_D.01/g09/l202.exe)
                          Input orientation:                          
 ---------------------------------------------------------------------
 Center     Atomic      Atomic             Coordinates (Angstroms)
 Number     Number       Type             X           Y           Z
 ---------------------------------------------------------------------
      1          6           0        1.733517   -0.648876   -0.126660
      2          6           0        1.699899   -0.113766    1.158090
      3          6           0        0.848124   -1.699054   -0.460990
      4          6           0       -0.062898   -2.234331    0.428250
      5          6           0       -1.293052   -0.345007    1.027920
      6          6           0       -0.378469    0.661290    1.327640
      7          1           0        1.461127   -0.738355    2.011570
      8          1           0        0.739763   -1.945003   -1.515650
      9          1           0        0.137502   -2.265581    1.493180
     10          1           0       -0.821990   -2.927128    0.077620
     11          6           0        2.522129    0.050971   -1.211090
     12          1           0        2.319983    1.128552   -1.206690
     13          1           0        3.600569   -0.078922   -1.057060
     14          1           0        2.274968   -0.336708   -2.203660
     15          1           0        2.286202    0.772422    1.387000
     16          1           0       -0.151267    1.046540    2.312990
     17          1           0       -1.865464   -0.933775    1.731630
     18          6           0       -0.309536    1.559050    0.145790
     19          8           0        0.286207    2.591078   -0.017050
     20          8           0       -1.081548    0.986932   -0.861250
     21          6           0       -1.805731   -0.098055   -0.333210
     22          8           0       -2.667823   -0.642433   -0.967370
 ---------------------------------------------------------------------
                    Distance matrix (angstroms):
                    1          2          3          4          5
     1  C    0.000000
     2  C    1.392141   0.000000
     3  C    1.413708   2.420760   0.000000
     4  C    2.459410   2.852528   1.381025   0.000000
     5  C    3.253538   3.004692   2.938525   2.332901   0.000000
     6  C    2.879585   2.224651   3.205457   3.048460   1.392454
     7  H    2.157367   1.084229   2.722548   2.658477   2.950897
     8  H    2.144012   3.379967   1.088366   2.122904   3.627957
     9  H    2.790140   2.680238   2.155161   1.084072   2.439581
    10  H    3.429691   3.929675   2.141856   1.085877   2.791472
    11  C    1.512509   2.513208   2.535257   3.820001   4.441348
    12  H    2.160939   2.742270   3.273804   4.433975   4.496541
    13  H    2.162493   2.919015   3.249012   4.502546   5.325924
    14  H    2.168997   3.417861   2.632256   3.999193   4.813932
    15  H    2.148654   1.086959   3.404604   3.934214   3.766782
    16  H    3.518343   2.471218   4.028900   3.784728   2.211669
    17  H    4.060428   3.703131   3.571665   2.576721   1.081439
    18  C    3.020469   2.803729   3.510499   3.811870   2.317518
    19  O    3.550214   3.270422   4.349490   4.858471   3.493797
    20  O    3.337676   3.609116   3.331421   3.616213   2.321155
    21  C    3.587805   3.809680   3.102011   2.860238   1.475297
    22  O    4.480918   4.886109   3.706043   3.356714   2.441237
                    6          7          8          9         10
     6  C    0.000000
     7  H    2.410577   0.000000
     8  H    4.015906   3.797058   0.000000
     9  H    2.976609   2.086416   3.085214   0.000000
    10  H    3.825703   3.707224   2.437653   1.833597   0.000000
    11  C    3.902705   3.483432   2.693232   4.285550   4.659719
    12  H    3.731328   3.818399   3.469768   4.855168   5.288666
    13  H    4.697601   3.798494   3.446270   4.824732   5.381339
    14  H    4.528444   4.311823   2.327407   4.685716   4.637420
    15  H    2.667648   1.831197   4.266292   3.722586   5.006197
    16  H    1.082106   2.424153   4.939813   3.424269   4.608339
    17  H    2.217790   3.344064   4.284229   2.417114   2.792498
    18  C    1.485764   3.448833   4.017437   4.079596   4.515866
    19  O    2.444190   4.071960   4.798703   5.088226   5.629179
    20  O    2.321982   4.206531   3.513069   4.196220   4.033449
    21  C    2.317780   4.071896   3.359899   3.436572   3.023273
    22  O    3.493981   5.092299   3.689030   4.069246   3.117521
                   11         12         13         14         15
    11  C    0.000000
    12  H    1.096386   0.000000
    13  H    1.097101   1.766432   0.000000
    14  H    1.093882   1.772840   1.771543   0.000000
    15  H    2.706700   2.618243   2.902719   3.758076   0.000000
    16  H    4.534021   4.301389   5.167221   5.310378   2.621803
    17  H    5.374039   5.514062   6.195570   5.743359   4.501801
    18  C    3.483354   2.988127   4.406668   3.974100   2.982824
    19  O    3.588485   2.773170   4.381269   4.160332   3.046120
    20  O    3.739639   3.421958   4.805893   3.849713   4.054921
    21  C    4.418513   4.391930   5.454576   4.495291   4.523358
    22  O    5.241737   5.298289   6.294309   5.104220   5.664560
                   16         17         18         19         20
    16  H    0.000000
    17  H    2.682927   0.000000
    18  C    2.232593   3.339158   0.000000
    19  O    2.829500   4.484658   1.202709   0.000000
    20  O    3.308289   3.320642   1.391924   2.270839   0.000000
    21  C    3.324112   2.228354   2.283427   3.421637   1.407290
    22  O    4.466144   2.830770   3.412795   4.481629   2.276480
                   21         22
    21  C    0.000000
    22  O    1.200712   0.000000
 Stoichiometry    C9H10O3
 Framework group  C1[X(C9H10O3)]
 Deg. of freedom    60
 Full point group                 C1      NOp   1
 Largest Abelian subgroup         C1      NOp   1
 Largest concise Abelian subgroup C1      NOp   1
                         Standard orientation:                         
 ---------------------------------------------------------------------
 Center     Atomic      Atomic             Coordinates (Angstroms)
 Number     Number       Type             X           Y           Z
 ---------------------------------------------------------------------
      1          6           0        1.733517   -0.648876   -0.126660
      2          6           0        1.699899   -0.113766    1.158090
      3          6           0        0.848124   -1.699054   -0.460990
      4          6           0       -0.062898   -2.234331    0.428250
      5          6           0       -1.293052   -0.345007    1.027920
      6          6           0       -0.378469    0.661290    1.327640
      7          1           0        1.461127   -0.738355    2.011570
      8          1           0        0.739763   -1.945003   -1.515650
      9          1           0        0.137502   -2.265581    1.493180
     10          1           0       -0.821990   -2.927128    0.077620
     11          6           0        2.522129    0.050971   -1.211090
     12          1           0        2.319983    1.128552   -1.206690
     13          1           0        3.600569   -0.078922   -1.057060
     14          1           0        2.274968   -0.336708   -2.203660
     15          1           0        2.286202    0.772422    1.387000
     16          1           0       -0.151267    1.046540    2.312990
     17          1           0       -1.865464   -0.933775    1.731630
     18          6           0       -0.309536    1.559050    0.145790
     19          8           0        0.286208    2.591078   -0.017050
     20          8           0       -1.081548    0.986932   -0.861250
     21          6           0       -1.805731   -0.098055   -0.333210
     22          8           0       -2.667823   -0.642433   -0.967370
 ---------------------------------------------------------------------
 Rotational constants (GHZ):      1.2206308      0.9823245      0.7491505
 Leave Link  202 at Tue Jun 28 22:16:23 2016, MaxMem=   268435456 cpu:         0.2
 (Enter /n/sw/g09_D.01/g09/l301.exe)
 Standard basis: CC-pVDZ (5D, 7F)
 Ernie: Thresh=  0.10000D-02 Tol=  0.10000D-05 Strict=F.
 Ernie:  24 primitive shells out of 314 were deleted.
 There are   230 symmetry adapted cartesian basis functions of A   symmetry.
 There are   218 symmetry adapted basis functions of A   symmetry.
   218 basis functions,   466 primitive gaussians,   230 cartesian basis functions
    44 alpha electrons       44 beta electrons
       nuclear repulsion energy       715.4424692541 Hartrees.
 IExCor= 1715 DFT=T Ex+Corr=B972 ExCW=0 ScaHFX=  0.210000
 ScaDFX=  1.000000  1.000000  1.000000  1.000000 ScalE2=  1.000000  1.000000
 IRadAn=      0 IRanWt=     -1 IRanGd=            0 ICorTp=0 IEmpDi=  4
 NAtoms=   22 NActive=   22 NUniq=   22 SFac= 1.00D+00 NAtFMM=   60 NAOKFM=F Big=F
 Integral buffers will be    131072 words long.
 Raffenetti 2 integral format.
 Two-electron integral symmetry is turned on.
 ------------------------------------------------------------------------------
 Polarizable Continuum Model (PCM)
 =================================
 Model                : PCM (using non-symmetric T matrix).
 Atomic radii         : UFF (Universal Force Field).
 Polarization charges : Total charges.
 Charge compensation  : None.
 Solution method      : On-the-fly selection.
 Cavity type          : Scaled VdW (van der Waals Surface) (Alpha=1.100).
 Cavity algorithm     : GePol (No added spheres)
                        Default sphere list used, NSphG=   22.
                        Lebedev-Laikov grids with approx.  5.0 points / Ang**2.
                        Smoothing algorithm: Karplus/York (Gamma=1.0000).
                        Polarization charges: spherical gaussians, with
                                              point-specific exponents (IZeta= 3).
                        Self-potential: point-specific (ISelfS= 7).
                        Self-field    : sphere-specific E.n sum rule (ISelfD= 2).
 1st derivatives      : Analytical E(r).r(x)/FMM algorithm (CHGder, D1EAlg=3).
                        Cavity 1st derivative terms included.
 Solvent              : o-Xylene, Eps=   2.545400 Eps(inf)=   2.266530
 ------------------------------------------------------------------------------
 GePol: Number of generator spheres                  =      22
 GePol: Total number of spheres                      =      22
 GePol: Number of exposed spheres                    =      22 (100.00%)
 GePol: Number of points                             =    1674
 GePol: Average weight of points                     =       0.13
 GePol: Minimum weight of points                     =   0.11D-09
 GePol: Maximum weight of points                     =    0.20577
 GePol: Number of points with low weight             =      94
 GePol: Fraction of low-weight points (<1% of avg)   =       5.62%
 GePol: Cavity surface area                          =    223.015 Ang**2
 GePol: Cavity volume                                =    236.952 Ang**3
 Leave Link  301 at Tue Jun 28 22:16:23 2016, MaxMem=   268435456 cpu:         0.3
 (Enter /n/sw/g09_D.01/g09/l302.exe)
 NPDir=0 NMtPBC=     1 NCelOv=     1 NCel=       1 NClECP=     1 NCelD=      1
         NCelK=      1 NCelE2=     1 NClLst=     1 CellRange=     0.0.
 One-electron integrals computed using PRISM.
 NBasis=   218 RedAO= T EigKep=  9.01D-04  NBF=   218
 NBsUse=   218 1.00D-06 EigRej= -1.00D+00 NBFU=   218
 Precomputing XC quadrature grid using
 IXCGrd= 4 IRadAn=           0 IRanWt=          -1 IRanGd=           0 AccXCQ= 0.00D+00.
 Generated NRdTot=       0 NPtTot=           0 NUsed=           0 NTot=          32
 NSgBfM=   230   230   230   230   230 MxSgAt=    22 MxSgA2=    22.
 Leave Link  302 at Tue Jun 28 22:16:25 2016, MaxMem=   268435456 cpu:         5.4
 (Enter /n/sw/g09_D.01/g09/l303.exe)
 DipDrv:  MaxL=1.
 Leave Link  303 at Tue Jun 28 22:16:26 2016, MaxMem=   268435456 cpu:         1.0
 (Enter /n/sw/g09_D.01/g09/l401.exe)
 ExpMin= 1.22D-01 ExpMax= 1.17D+04 ExpMxC= 4.01D+02 IAcc=1 IRadAn=         1 AccDes= 0.00D+00
 Harris functional with IExCor= 1715 and IRadAn=       1 diagonalized for initial guess.
 HarFok:  IExCor= 1715 AccDes= 0.00D+00 IRadAn=         1 IDoV= 1 UseB2=F ITyADJ=14
 ICtDFT=  3500011 ScaDFX=  1.000000  1.000000  1.000000  1.000000
 FoFCou: FMM=F IPFlag=           0 FMFlag=      100000 FMFlg1=           0
         NFxFlg=           0 DoJE=T BraDBF=F KetDBF=T FulRan=T
         wScrn=  0.000000 ICntrl=     500 IOpCl=  0 I1Cent=   200000004 NGrid=           0
         NMat0=    1 NMatS0=      1 NMatT0=    0 NMatD0=    1 NMtDS0=    0 NMtDT0=    0
 Petite list used in FoFCou.
 Harris En= -558.861548551393    
 JPrj=0 DoOrth=F DoCkMO=F.
 Leave Link  401 at Tue Jun 28 22:16:29 2016, MaxMem=   268435456 cpu:         9.9
 (Enter /n/sw/g09_D.01/g09/l502.exe)
 Closed shell SCF:
 Using DIIS extrapolation, IDIIS=  1040.
 Integral symmetry usage will be decided dynamically.
 IVT=      180374 IEndB=      180374 NGot=   268435456 MDV=   268324853
 LenX=   268324853 LenY=   268271512
 Requested convergence on RMS density matrix=1.00D-08 within 128 cycles.
 Requested convergence on MAX density matrix=1.00D-06.
 Requested convergence on             energy=1.00D-06.
 No special actions if energy rises.
 Fock matrices will be formed incrementally for  20 cycles.

 Cycle   1  Pass 1  IDiag  1:
 FoFJK:  IHMeth= 1 ICntrl=       0 DoSepK=F KAlg= 0 I1Cent=   0 FoldK=F
 IRaf= 960000000 NMat=   1 IRICut=       1 DoRegI=T DoRafI=F ISym2E= 0.
 FoFCou: FMM=F IPFlag=           0 FMFlag=      100000 FMFlg1=           0
         NFxFlg=           0 DoJE=F BraDBF=F KetDBF=F FulRan=T
         wScrn=  0.000000 ICntrl=       0 IOpCl=  0 I1Cent=           0 NGrid=           0
         NMat0=    1 NMatS0=      1 NMatT0=    0 NMatD0=    1 NMtDS0=    0 NMtDT0=    0
 Symmetry not used in FoFCou.
 Inv3:  Mode=1 IEnd=     8406828.
 Iteration    1 A*A^-1 deviation from unit magnitude is 6.44D-15 for   1344.
 Iteration    1 A*A^-1 deviation from orthogonality  is 3.73D-15 for   1176    343.
 Iteration    1 A^-1*A deviation from unit magnitude is 5.77D-15 for     26.
 Iteration    1 A^-1*A deviation from orthogonality  is 6.54D-15 for   1149   1143.
 E= -574.320997172235    
 DIIS: error= 2.41D-02 at cycle   1 NSaved=   1.
 NSaved= 1 IEnMin= 1 EnMin= -574.320997172235     IErMin= 1 ErrMin= 2.41D-02
 ErrMax= 2.41D-02  0.00D+00 EMaxC= 1.00D-01 BMatC= 2.08D-01 BMatP= 2.08D-01
 IDIUse=3 WtCom= 7.59D-01 WtEn= 2.41D-01
 Coeff-Com:  0.100D+01
 Coeff-En:   0.100D+01
 Coeff:      0.100D+01
 Gap=     0.261 Goal=   None    Shift=    0.000
 GapD=    0.261 DampG=1.000 DampE=0.500 DampFc=0.5000 IDamp=-1.
 Damping current iteration by 5.00D-01
 RMSDP=3.03D-03 MaxDP=9.90D-02              OVMax= 1.76D-01

 Cycle   2  Pass 1  IDiag  1:
 RMSU=  1.51D-03    CP:  9.97D-01
 E= -574.355118755328     Delta-E=       -0.034121583094 Rises=F Damp=T
 DIIS: error= 1.48D-02 at cycle   2 NSaved=   2.
 NSaved= 2 IEnMin= 2 EnMin= -574.355118755328     IErMin= 2 ErrMin= 1.48D-02
 ErrMax= 1.48D-02  0.00D+00 EMaxC= 1.00D-01 BMatC= 4.29D-02 BMatP= 2.08D-01
 IDIUse=3 WtCom= 8.52D-01 WtEn= 1.48D-01
 Coeff-Com:  0.238D-02 0.998D+00
 Coeff-En:   0.275D+00 0.725D+00
 Coeff:      0.427D-01 0.957D+00
 Gap=     0.190 Goal=   None    Shift=    0.000
 RMSDP=1.19D-03 MaxDP=4.21D-02 DE=-3.41D-02 OVMax= 1.60D-01

 Cycle   3  Pass 1  IDiag  1:
 RMSU=  1.09D-03    CP:  9.96D-01  6.98D-01
 E= -574.396539571518     Delta-E=       -0.041420816190 Rises=F Damp=F
 DIIS: error= 2.03D-02 at cycle   3 NSaved=   3.
 NSaved= 3 IEnMin= 3 EnMin= -574.396539571518     IErMin= 2 ErrMin= 1.48D-02
 ErrMax= 2.03D-02  0.00D+00 EMaxC= 1.00D-01 BMatC= 3.95D-02 BMatP= 4.29D-02
 IDIUse=3 WtCom= 7.97D-01 WtEn= 2.03D-01
 Coeff-Com: -0.200D+00 0.597D+00 0.602D+00
 Coeff-En:   0.000D+00 0.868D-01 0.913D+00
 Coeff:     -0.159D+00 0.494D+00 0.666D+00
 Gap=     0.187 Goal=   None    Shift=    0.000
 RMSDP=1.09D-03 MaxDP=3.91D-02 DE=-4.14D-02 OVMax= 8.33D-02

 Cycle   4  Pass 1  IDiag  1:
 RMSU=  7.26D-04    CP:  9.98D-01  1.04D+00  4.34D-01
 E= -574.414317052151     Delta-E=       -0.017777480633 Rises=F Damp=F
 DIIS: error= 1.07D-02 at cycle   4 NSaved=   4.
 NSaved= 4 IEnMin= 4 EnMin= -574.414317052151     IErMin= 4 ErrMin= 1.07D-02
 ErrMax= 1.07D-02  0.00D+00 EMaxC= 1.00D-01 BMatC= 1.74D-02 BMatP= 3.95D-02
 IDIUse=3 WtCom= 8.93D-01 WtEn= 1.07D-01
 Coeff-Com: -0.995D-01 0.207D+00 0.458D+00 0.435D+00
 Coeff-En:   0.000D+00 0.000D+00 0.339D+00 0.661D+00
 Coeff:     -0.888D-01 0.184D+00 0.446D+00 0.459D+00
 Gap=     0.185 Goal=   None    Shift=    0.000
 RMSDP=5.40D-04 MaxDP=1.89D-02 DE=-1.78D-02 OVMax= 3.16D-02

 Cycle   5  Pass 1  IDiag  1:
 RMSU=  1.39D-04    CP:  9.96D-01  9.94D-01  6.51D-01  3.69D-01
 E= -574.427659722664     Delta-E=       -0.013342670514 Rises=F Damp=F
 DIIS: error= 1.02D-03 at cycle   5 NSaved=   5.
 NSaved= 5 IEnMin= 5 EnMin= -574.427659722664     IErMin= 5 ErrMin= 1.02D-03
 ErrMax= 1.02D-03  0.00D+00 EMaxC= 1.00D-01 BMatC= 3.32D-04 BMatP= 1.74D-02
 IDIUse=3 WtCom= 9.90D-01 WtEn= 1.02D-02
 Coeff-Com: -0.442D-01 0.866D-01 0.234D+00 0.267D+00 0.457D+00
 Coeff-En:   0.000D+00 0.000D+00 0.000D+00 0.000D+00 0.100D+01
 Coeff:     -0.438D-01 0.857D-01 0.232D+00 0.264D+00 0.462D+00
 Gap=     0.181 Goal=   None    Shift=    0.000
 RMSDP=8.44D-05 MaxDP=3.05D-03 DE=-1.33D-02 OVMax= 4.02D-03

 Cycle   6  Pass 1  IDiag  1:
 RMSU=  3.45D-05    CP:  9.97D-01  9.89D-01  6.60D-01  4.45D-01  6.26D-01
 E= -574.427941231121     Delta-E=       -0.000281508457 Rises=F Damp=F
 DIIS: error= 1.95D-04 at cycle   6 NSaved=   6.
 NSaved= 6 IEnMin= 6 EnMin= -574.427941231121     IErMin= 6 ErrMin= 1.95D-04
 ErrMax= 1.95D-04  0.00D+00 EMaxC= 1.00D-01 BMatC= 1.01D-05 BMatP= 3.32D-04
 IDIUse=3 WtCom= 9.98D-01 WtEn= 1.95D-03
 Coeff-Com: -0.638D-02 0.110D-01 0.407D-01 0.555D-01 0.188D+00 0.711D+00
 Coeff-En:   0.000D+00 0.000D+00 0.000D+00 0.000D+00 0.000D+00 0.100D+01
 Coeff:     -0.637D-02 0.110D-01 0.406D-01 0.554D-01 0.187D+00 0.712D+00
 Gap=     0.181 Goal=   None    Shift=    0.000
 RMSDP=1.43D-05 MaxDP=5.71D-04 DE=-2.82D-04 OVMax= 7.90D-04

 Cycle   7  Pass 1  IDiag  1:
 RMSU=  1.13D-05    CP:  9.97D-01  9.88D-01  6.63D-01  4.50D-01  6.55D-01
                    CP:  8.28D-01
 E= -574.427948696611     Delta-E=       -0.000007465490 Rises=F Damp=F
 DIIS: error= 5.84D-05 at cycle   7 NSaved=   7.
 NSaved= 7 IEnMin= 7 EnMin= -574.427948696611     IErMin= 7 ErrMin= 5.84D-05
 ErrMax= 5.84D-05  0.00D+00 EMaxC= 1.00D-01 BMatC= 1.50D-06 BMatP= 1.01D-05
 IDIUse=1 WtCom= 1.00D+00 WtEn= 0.00D+00
 Coeff-Com:  0.544D-03-0.153D-02 0.800D-04 0.343D-02 0.494D-01 0.346D+00
 Coeff-Com:  0.602D+00
 Coeff:      0.544D-03-0.153D-02 0.800D-04 0.343D-02 0.494D-01 0.346D+00
 Coeff:      0.602D+00
 Gap=     0.181 Goal=   None    Shift=    0.000
 RMSDP=6.92D-06 MaxDP=1.74D-04 DE=-7.47D-06 OVMax= 5.59D-04

 Cycle   8  Pass 1  IDiag  1:
 RMSU=  5.13D-06    CP:  9.97D-01  9.88D-01  6.62D-01  4.48D-01  6.64D-01
                    CP:  8.79D-01  6.69D-01
 E= -574.427949919293     Delta-E=       -0.000001222682 Rises=F Damp=F
 DIIS: error= 2.45D-05 at cycle   8 NSaved=   8.
 NSaved= 8 IEnMin= 8 EnMin= -574.427949919293     IErMin= 8 ErrMin= 2.45D-05
 ErrMax= 2.45D-05  0.00D+00 EMaxC= 1.00D-01 BMatC= 2.63D-07 BMatP= 1.50D-06
 IDIUse=1 WtCom= 1.00D+00 WtEn= 0.00D+00
 Coeff-Com:  0.877D-03-0.179D-02-0.423D-02-0.448D-02 0.704D-02 0.119D+00
 Coeff-Com:  0.350D+00 0.534D+00
 Coeff:      0.877D-03-0.179D-02-0.423D-02-0.448D-02 0.704D-02 0.119D+00
 Coeff:      0.350D+00 0.534D+00
 Gap=     0.181 Goal=   None    Shift=    0.000
 RMSDP=2.87D-06 MaxDP=7.36D-05 DE=-1.22D-06 OVMax= 3.18D-04

 Cycle   9  Pass 1  IDiag  1:
 RMSU=  1.61D-06    CP:  9.97D-01  9.88D-01  6.62D-01  4.48D-01  6.69D-01
                    CP:  8.90D-01  7.44D-01  5.99D-01
 E= -574.427950216272     Delta-E=       -0.000000296979 Rises=F Damp=F
 DIIS: error= 7.81D-06 at cycle   9 NSaved=   9.
 NSaved= 9 IEnMin= 9 EnMin= -574.427950216272     IErMin= 9 ErrMin= 7.81D-06
 ErrMax= 7.81D-06  0.00D+00 EMaxC= 1.00D-01 BMatC= 1.80D-08 BMatP= 2.63D-07
 IDIUse=1 WtCom= 1.00D+00 WtEn= 0.00D+00
 Coeff-Com:  0.363D-03-0.725D-03-0.198D-02-0.243D-02 0.627D-03 0.375D-01
 Coeff-Com:  0.134D+00 0.284D+00 0.549D+00
 Coeff:      0.363D-03-0.725D-03-0.198D-02-0.243D-02 0.627D-03 0.375D-01
 Coeff:      0.134D+00 0.284D+00 0.549D+00
 Gap=     0.181 Goal=   None    Shift=    0.000
 RMSDP=7.30D-07 MaxDP=2.21D-05 DE=-2.97D-07 OVMax= 6.85D-05

 Cycle  10  Pass 1  IDiag  1:
 RMSU=  4.48D-07    CP:  9.97D-01  9.88D-01  6.62D-01  4.48D-01  6.69D-01
                    CP:  8.95D-01  7.50D-01  6.74D-01  7.85D-01
 E= -574.427950236459     Delta-E=       -0.000000020188 Rises=F Damp=F
 DIIS: error= 2.32D-06 at cycle  10 NSaved=  10.
 NSaved=10 IEnMin=10 EnMin= -574.427950236459     IErMin=10 ErrMin= 2.32D-06
 ErrMax= 2.32D-06  0.00D+00 EMaxC= 1.00D-01 BMatC= 1.46D-09 BMatP= 1.80D-08
 IDIUse=1 WtCom= 1.00D+00 WtEn= 0.00D+00
 Coeff-Com:  0.421D-04-0.730D-04-0.349D-03-0.619D-03-0.123D-02-0.403D-02
 Coeff-Com:  0.175D-02 0.461D-01 0.225D+00 0.733D+00
 Coeff:      0.421D-04-0.730D-04-0.349D-03-0.619D-03-0.123D-02-0.403D-02
 Coeff:      0.175D-02 0.461D-01 0.225D+00 0.733D+00
 Gap=     0.181 Goal=   None    Shift=    0.000
 RMSDP=2.50D-07 MaxDP=5.88D-06 DE=-2.02D-08 OVMax= 2.80D-05

 Cycle  11  Pass 1  IDiag  1:
 RMSU=  1.60D-07    CP:  9.97D-01  9.88D-01  6.62D-01  4.48D-01  6.70D-01
                    CP:  8.96D-01  7.55D-01  6.84D-01  8.62D-01  8.77D-01
 E= -574.427950238017     Delta-E=       -0.000000001558 Rises=F Damp=F
 DIIS: error= 9.42D-07 at cycle  11 NSaved=  11.
 NSaved=11 IEnMin=11 EnMin= -574.427950238017     IErMin=11 ErrMin= 9.42D-07
 ErrMax= 9.42D-07  0.00D+00 EMaxC= 1.00D-01 BMatC= 2.59D-10 BMatP= 1.46D-09
 IDIUse=1 WtCom= 1.00D+00 WtEn= 0.00D+00
 Coeff-Com: -0.131D-04 0.327D-04 0.143D-04-0.897D-04-0.628D-03-0.537D-02
 Coeff-Com: -0.112D-01-0.138D-02 0.623D-01 0.380D+00 0.576D+00
 Coeff:     -0.131D-04 0.327D-04 0.143D-04-0.897D-04-0.628D-03-0.537D-02
 Coeff:     -0.112D-01-0.138D-02 0.623D-01 0.380D+00 0.576D+00
 Gap=     0.181 Goal=   None    Shift=    0.000
 RMSDP=1.05D-07 MaxDP=2.83D-06 DE=-1.56D-09 OVMax= 1.30D-05

 Cycle  12  Pass 1  IDiag  1:
 RMSU=  7.15D-08    CP:  9.97D-01  9.88D-01  6.62D-01  4.48D-01  6.70D-01
                    CP:  8.96D-01  7.56D-01  6.89D-01  8.76D-01  9.52D-01
                    CP:  6.62D-01
 E= -574.427950238292     Delta-E=       -0.000000000275 Rises=F Damp=F
 DIIS: error= 2.75D-07 at cycle  12 NSaved=  12.
 NSaved=12 IEnMin=12 EnMin= -574.427950238292     IErMin=12 ErrMin= 2.75D-07
 ErrMax= 2.75D-07  0.00D+00 EMaxC= 1.00D-01 BMatC= 4.43D-11 BMatP= 2.59D-10
 IDIUse=1 WtCom= 1.00D+00 WtEn= 0.00D+00
 Coeff-Com: -0.140D-04 0.296D-04 0.600D-04 0.384D-04-0.175D-03-0.245D-02
 Coeff-Com: -0.647D-02-0.656D-02 0.509D-02 0.109D+00 0.335D+00 0.567D+00
 Coeff:     -0.140D-04 0.296D-04 0.600D-04 0.384D-04-0.175D-03-0.245D-02
 Coeff:     -0.647D-02-0.656D-02 0.509D-02 0.109D+00 0.335D+00 0.567D+00
 Gap=     0.181 Goal=   None    Shift=    0.000
 RMSDP=3.76D-08 MaxDP=1.11D-06 DE=-2.75D-10 OVMax= 4.80D-06

 Cycle  13  Pass 1  IDiag  1:
 RMSU=  2.24D-08    CP:  9.97D-01  9.88D-01  6.62D-01  4.48D-01  6.70D-01
                    CP:  8.96D-01  7.56D-01  6.91D-01  8.81D-01  9.61D-01
                    CP:  7.92D-01  7.69D-01
 E= -574.427950238328     Delta-E=       -0.000000000036 Rises=F Damp=F
 DIIS: error= 9.07D-08 at cycle  13 NSaved=  13.
 NSaved=13 IEnMin=13 EnMin= -574.427950238328     IErMin=13 ErrMin= 9.07D-08
 ErrMax= 9.07D-08  0.00D+00 EMaxC= 1.00D-01 BMatC= 3.64D-12 BMatP= 4.43D-11
 IDIUse=1 WtCom= 1.00D+00 WtEn= 0.00D+00
 Coeff-Com: -0.577D-05 0.115D-04 0.293D-04 0.300D-04-0.287D-04-0.757D-03
 Coeff-Com: -0.223D-02-0.347D-02-0.420D-02 0.103D-01 0.111D+00 0.286D+00
 Coeff-Com:  0.603D+00
 Coeff:     -0.577D-05 0.115D-04 0.293D-04 0.300D-04-0.287D-04-0.757D-03
 Coeff:     -0.223D-02-0.347D-02-0.420D-02 0.103D-01 0.111D+00 0.286D+00
 Coeff:      0.603D+00
 Gap=     0.181 Goal=   None    Shift=    0.000
 RMSDP=1.23D-08 MaxDP=4.68D-07 DE=-3.64D-11 OVMax= 1.41D-06

 Cycle  14  Pass 1  IDiag  1:
 RMSU=  8.17D-09    CP:  9.97D-01  9.88D-01  6.62D-01  4.48D-01  6.70D-01
                    CP:  8.96D-01  7.56D-01  6.91D-01  8.82D-01  9.68D-01
                    CP:  8.02D-01  8.36D-01  7.42D-01
 E= -574.427950238347     Delta-E=       -0.000000000019 Rises=F Damp=F
 DIIS: error= 3.65D-08 at cycle  14 NSaved=  14.
 NSaved=14 IEnMin=14 EnMin= -574.427950238347     IErMin=14 ErrMin= 3.65D-08
 ErrMax= 3.65D-08  0.00D+00 EMaxC= 1.00D-01 BMatC= 6.27D-13 BMatP= 3.64D-12
 IDIUse=1 WtCom= 1.00D+00 WtEn= 0.00D+00
 Coeff-Com: -0.478D-06 0.734D-06 0.428D-05 0.820D-05 0.196D-04 0.458D-04
 Coeff-Com:  0.372D-04-0.534D-03-0.249D-02-0.134D-01 0.464D-02 0.564D-01
 Coeff-Com:  0.332D+00 0.624D+00
 Coeff:     -0.478D-06 0.734D-06 0.428D-05 0.820D-05 0.196D-04 0.458D-04
 Coeff:      0.372D-04-0.534D-03-0.249D-02-0.134D-01 0.464D-02 0.564D-01
 Coeff:      0.332D+00 0.624D+00
 Gap=     0.181 Goal=   None    Shift=    0.000
 RMSDP=4.65D-09 MaxDP=2.22D-07 DE=-1.91D-11 OVMax= 6.39D-07

 Error on total polarization charges =  0.00465
 SCF Done:  E(RB972) =  -574.427950238     A.U. after   14 cycles
            NFock= 14  Conv=0.46D-08     -V/T= 2.0060
 KE= 5.709804585609D+02 PE=-2.771674886579D+03 EE= 9.108240085256D+02
 Leave Link  502 at Tue Jun 28 22:20:33 2016, MaxMem=   268435456 cpu:       731.5
 (Enter /n/sw/g09_D.01/g09/l701.exe)
 Compute integral first derivatives.
 ... and contract with generalized density number  0.
 D1PCM: PCM CHGder 1st derivatives, ID1Alg=3 FixD1E=F DoIter=F DoCFld=F I1PDM=0.
 GePol: Maximum number of non-zero 1st derivatives   =     222
 Leave Link  701 at Tue Jun 28 22:20:38 2016, MaxMem=   268435456 cpu:        18.8
 (Enter /n/sw/g09_D.01/g09/l702.exe)
 L702 exits ... SP integral derivatives will be done elsewhere.
 Leave Link  702 at Tue Jun 28 22:20:38 2016, MaxMem=   268435456 cpu:         0.1
 (Enter /n/sw/g09_D.01/g09/l703.exe)
 Compute integral first derivatives, UseDBF=F ICtDFT=           0.
 Integral derivatives from FoFJK, PRISM(SPDF).
 Calling FoFJK, ICntrl=      2127 FMM=F ISym2X=0 I1Cent= 0 IOpClX= 0 NMat=1 NMatS=1 NMatT=0.
 FoFJK:  IHMeth= 1 ICntrl=    2127 DoSepK=F KAlg= 0 I1Cent=   0 FoldK=F
 IRaf=         0 NMat=   1 IRICut=       1 DoRegI=T DoRafI=F ISym2E= 0.
 FoFCou: FMM=F IPFlag=           0 FMFlag=      100000 FMFlg1=         800
         NFxFlg=           0 DoJE=F BraDBF=F KetDBF=F FulRan=T
         wScrn=  0.000000 ICntrl=    2127 IOpCl=  0 I1Cent=           0 NGrid=           0
         NMat0=    1 NMatS0=      1 NMatT0=    0 NMatD0=    1 NMtDS0=    0 NMtDT0=    0
 Symmetry not used in FoFCou.
 Leave Link  703 at Tue Jun 28 22:21:08 2016, MaxMem=   268435456 cpu:       118.1
 (Enter /n/sw/g09_D.01/g09/l716.exe)
 Dipole        = 1.16080181D+00-1.21772637D+00 1.47106772D+00
 ***** Axes restored to original set *****
 -------------------------------------------------------------------
 Center     Atomic                   Forces (Hartrees/Bohr)
 Number     Number              X              Y              Z
 -------------------------------------------------------------------
      1        6           0.001251352    0.002373205   -0.002831563
      2        6          -0.002006918   -0.000446461   -0.001814375
      3        6          -0.000320549    0.001315780    0.002405708
      4        6           0.001636772    0.002527611   -0.000946210
      5        6           0.001128175    0.001552089   -0.005129487
      6        6           0.000764949    0.000010218   -0.005533684
      7        1          -0.001409710   -0.001759239    0.001960664
      8        1          -0.000031851   -0.000678608   -0.002573880
      9        1           0.000518814    0.000678570    0.003044339
     10        1          -0.002031342   -0.001904643   -0.001456790
     11        6          -0.002746659   -0.003000156    0.002904208
     12        1          -0.000069890    0.001674798    0.000353805
     13        1           0.001456427   -0.000261033    0.000775234
     14        1          -0.000551373   -0.000807747   -0.001416123
     15        1           0.001629577    0.002355099    0.000235920
     16        1           0.000837887    0.000720475    0.002622743
     17        1          -0.001252997   -0.001777448    0.001927841
     18        6           0.000322803   -0.001674867    0.000473115
     19        8          -0.004989685   -0.005473713   -0.000740503
     20        8          -0.000463831   -0.000426555    0.002471617
     21        6           0.001900600    0.000552589    0.001545180
     22        8           0.004427449    0.004450037    0.001722239
 -------------------------------------------------------------------
 Cartesian Forces:  Max     0.005533684 RMS     0.002165847
 Leave Link  716 at Tue Jun 28 22:21:08 2016, MaxMem=   268435456 cpu:         0.2
 (Enter /n/sw/g09_D.01/g09/l103.exe)

 GradGradGradGradGradGradGradGradGradGradGradGradGradGradGradGradGradGrad
 Berny optimization.
 FormGI is forming the generalized inverse of G from B-inverse, IUseBI=4.
 Internal  Forces:  Max     0.007067616 RMS     0.001564671
 Search for a local minimum.
 Step number   1 out of a maximum of  132
 All quantities printed in internal units (Hartrees-Bohrs-Radians)
 RMS Force = .15613D-02 SwitMx=.10000D-02 MixMth= 1
 Mixed Optimization -- RFO/linear search
 Second derivative matrix not updated -- first step.
 ITU=  0
     Eigenvalues ---    0.00600   0.00878   0.01117   0.01191   0.01414
     Eigenvalues ---    0.01606   0.01724   0.02190   0.02375   0.03299
     Eigenvalues ---    0.03709   0.03920   0.05081   0.05414   0.06055
     Eigenvalues ---    0.06776   0.07047   0.07181   0.07230   0.07676
     Eigenvalues ---    0.07936   0.08075   0.09088   0.09389   0.09757
     Eigenvalues ---    0.11370   0.13723   0.15676   0.16000   0.16000
     Eigenvalues ---    0.16000   0.20023   0.21498   0.23077   0.24509
     Eigenvalues ---    0.24995   0.24999   0.31100   0.32163   0.33952
     Eigenvalues ---    0.34005   0.34085   0.34368   0.35002   0.35166
     Eigenvalues ---    0.35293   0.35488   0.35507   0.35741   0.35821
     Eigenvalues ---    0.38808   0.40077   0.44030   0.44344   0.45843
     Eigenvalues ---    0.47734   1.03474   1.044661000.000001000.00000
     Eigenvalues --- 1000.000001000.000001000.000001000.000001000.00000
     Eigenvalues --- 1000.000001000.000001000.000001000.000001000.00000
     Eigenvalues --- 1000.000001000.000001000.000001000.000001000.00000
     Eigenvalues --- 1000.000001000.000001000.000001000.000001000.00000
     Eigenvalues --- 1000.000001000.000001000.000001000.000001000.00000
     Eigenvalues --- 1000.000001000.000001000.000001000.000001000.00000
     Eigenvalues --- 1000.000001000.000001000.000001000.000001000.00000
     Eigenvalues --- 1000.000001000.000001000.000001000.000001000.00000
     Eigenvalues --- 1000.000001000.000001000.000001000.000001000.00000
     Eigenvalues --- 1000.000001000.000001000.000001000.000001000.00000
     Eigenvalues --- 1000.000001000.000001000.000001000.000001000.00000
     Eigenvalues --- 1000.000001000.000001000.000001000.000001000.00000
     Eigenvalues --- 1000.000001000.000001000.000001000.000001000.00000
     Eigenvalues --- 1000.000001000.000001000.000001000.000001000.00000
     Eigenvalues --- 1000.00000
 RFO step:  Lambda=-9.00417426D-04 EMin= 6.00478837D-03
 Linear search not attempted -- first point.
 Iteration  1 RMS(Cart)=  0.01295680 RMS(Int)=  0.00013913
 Iteration  2 RMS(Cart)=  0.00013285 RMS(Int)=  0.00005120
 Iteration  3 RMS(Cart)=  0.00000001 RMS(Int)=  0.00005120
 Iteration  1 RMS(Cart)=  0.00000180 RMS(Int)=  0.00000021
 Iteration  2 RMS(Cart)=  0.00000012 RMS(Int)=  0.00000022
 ITry= 1 IFail=0 DXMaxC= 9.14D-02 DCOld= 1.00D+10 DXMaxT= 3.00D-01 DXLimC= 3.00D+00 Rises=F
 Variable       Old X    -DE/DX   Delta X   Delta X   Delta X     New X
                                 (Linear)    (Quad)   (Total)
    R1        2.63076  -0.00011   0.00000  -0.00005  -0.00004   2.63073
    R2        2.67152  -0.00104   0.00000  -0.00204  -0.00202   2.66950
    R3        2.85823  -0.00398   0.00000  -0.01277  -0.01277   2.84546
    R4        4.20398  -0.00187   0.00000   0.00000   0.00000   4.20398
    R5        2.04890   0.00286   0.00000   0.00805   0.00805   2.05694
    R6        2.05406   0.00285   0.00000   0.00809   0.00809   2.06215
    R7        2.60976  -0.00063   0.00000  -0.00115  -0.00113   2.60863
    R8        2.05671   0.00265   0.00000   0.00754   0.00754   2.06425
    R9        4.40854  -0.00163   0.00000   0.00000   0.00000   4.40854
   R10        2.04860   0.00308   0.00000   0.00864   0.00864   2.05724
   R11        2.05201   0.00310   0.00000   0.00876   0.00876   2.06078
   R12        2.63136  -0.00203   0.00000  -0.00319  -0.00321   2.62815
   R13        2.04362   0.00288   0.00000   0.00803   0.00803   2.05166
   R14        2.78791  -0.00375   0.00000  -0.01000  -0.01003   2.77788
   R15        2.04488   0.00282   0.00000   0.00787   0.00787   2.05275
   R16        2.80769  -0.00367   0.00000  -0.01028  -0.01025   2.79744
   R17        2.07187   0.00166   0.00000   0.00484   0.00484   2.07671
   R18        2.07322   0.00157   0.00000   0.00460   0.00460   2.07782
   R19        2.06714   0.00170   0.00000   0.00494   0.00494   2.07208
   R20        2.27279  -0.00707   0.00000  -0.00682  -0.00682   2.26597
   R21        2.63035  -0.00538   0.00000  -0.01265  -0.01263   2.61772
   R22        2.65939  -0.00550   0.00000  -0.01354  -0.01356   2.64583
   R23        2.26902  -0.00611   0.00000  -0.00584  -0.00584   2.26318
    A1        2.08135  -0.00010   0.00000  -0.00172  -0.00175   2.07960
    A2        2.09025   0.00061   0.00000   0.00463   0.00458   2.09482
    A3        2.09521  -0.00047   0.00000   0.00020   0.00013   2.09535
    A4        1.79960   0.00024   0.00000  -0.00058  -0.00059   1.79901
    A5        2.10638   0.00014   0.00000  -0.00174  -0.00176   2.10462
    A6        2.08829  -0.00040   0.00000  -0.00022  -0.00022   2.08807
    A7        1.50571  -0.00077   0.00000  -0.00748  -0.00749   1.49822
    A8        1.77607   0.00033   0.00000   0.00281   0.00281   1.77888
    A9        2.00719   0.00035   0.00000   0.00419   0.00419   2.01138
   A10        2.15172  -0.00007   0.00000  -0.00262  -0.00262   2.14910
   A11        2.04811  -0.00010   0.00000   0.00171   0.00168   2.04978
   A12        2.06087   0.00021   0.00000   0.00341   0.00337   2.06424
   A13        1.77161   0.00019   0.00000  -0.00147  -0.00148   1.77013
   A14        2.11970   0.00023   0.00000  -0.00016  -0.00018   2.11953
   A15        2.09500  -0.00049   0.00000  -0.00186  -0.00186   2.09314
   A16        1.43873  -0.00066   0.00000  -0.00523  -0.00522   1.43350
   A17        1.80398   0.00029   0.00000   0.00105   0.00105   1.80503
   A18        2.01311   0.00035   0.00000   0.00417   0.00417   2.01728
   A19        1.86947   0.00015   0.00000  -0.00123  -0.00124   1.86823
   A20        1.57626  -0.00041   0.00000  -0.00154  -0.00152   1.57473
   A21        1.65254   0.00070   0.00000   0.00278   0.00280   1.65534
   A22        2.21560   0.00036   0.00000   0.00109   0.00108   2.21668
   A23        1.88165  -0.00118   0.00000  -0.00437  -0.00436   1.87729
   A24        2.10314   0.00071   0.00000   0.00364   0.00363   2.10677
   A25        1.92351   0.00018   0.00000  -0.00101  -0.00100   1.92250
   A26        1.56807  -0.00044   0.00000  -0.00081  -0.00080   1.56727
   A27        1.67754   0.00089   0.00000   0.00472   0.00472   1.68226
   A28        2.20333   0.00033   0.00000   0.00032   0.00029   2.20362
   A29        1.87122  -0.00123   0.00000  -0.00423  -0.00420   1.86703
   A30        2.09377   0.00070   0.00000   0.00297   0.00295   2.09673
   A31        1.93452   0.00002   0.00000   0.00016   0.00015   1.93468
   A32        1.93594  -0.00075   0.00000  -0.00555  -0.00556   1.93038
   A33        1.94849  -0.00017   0.00000  -0.00016  -0.00017   1.94832
   A34        1.87239   0.00009   0.00000  -0.00111  -0.00111   1.87127
   A35        1.88632   0.00036   0.00000   0.00395   0.00395   1.89027
   A36        1.88340   0.00049   0.00000   0.00297   0.00296   1.88637
   A37        2.27729   0.00157   0.00000   0.00597   0.00573   2.28302
   A38        1.87696   0.00179   0.00000   0.00824   0.00812   1.88509
   A39        2.12877  -0.00334   0.00000  -0.01360  -0.01383   2.11494
   A40        1.90799  -0.00119   0.00000  -0.00710  -0.00700   1.90099
   A41        1.87173   0.00182   0.00000   0.00850   0.00844   1.88017
   A42        2.29281   0.00158   0.00000   0.00562   0.00555   2.29836
   A43        2.11863  -0.00340   0.00000  -0.01423  -0.01430   2.10434
    D1       -1.05500   0.00042   0.00000  -0.00124  -0.00123  -1.05624
    D2        0.57638  -0.00032   0.00000  -0.01099  -0.01099   0.56539
    D3       -3.00846   0.00003   0.00000  -0.00422  -0.00422  -3.01268
    D4        1.89329   0.00061   0.00000   0.01689   0.01690   1.91020
    D5       -2.75851  -0.00012   0.00000   0.00714   0.00715  -2.75136
    D6       -0.06016   0.00022   0.00000   0.01391   0.01392  -0.04625
    D7       -0.00072  -0.00017   0.00000  -0.00387  -0.00388  -0.00459
    D8        2.90988   0.00008   0.00000   0.00923   0.00921   2.91910
    D9       -2.94845  -0.00048   0.00000  -0.02255  -0.02252  -2.97097
   D10       -0.03785  -0.00023   0.00000  -0.00946  -0.00943  -0.04728
   D11       -0.80462   0.00016   0.00000   0.00030   0.00029  -0.80433
   D12        1.27344  -0.00019   0.00000  -0.00458  -0.00459   1.26885
   D13       -2.90855  -0.00020   0.00000  -0.00472  -0.00473  -2.91328
   D14        2.14212   0.00040   0.00000   0.01837   0.01839   2.16051
   D15       -2.06300   0.00004   0.00000   0.01349   0.01351  -2.04949
   D16        0.03819   0.00004   0.00000   0.01335   0.01337   0.05156
   D17        0.94019  -0.00016   0.00000   0.00285   0.00287   0.94306
   D18       -3.09196   0.00006   0.00000   0.00252   0.00251  -3.08945
   D19       -0.99522   0.00076   0.00000   0.00569   0.00567  -0.98955
   D20       -1.16571  -0.00014   0.00000   0.00641   0.00643  -1.15928
   D21        1.08532   0.00007   0.00000   0.00608   0.00607   1.09139
   D22       -3.10112   0.00077   0.00000   0.00925   0.00923  -3.09189
   D23        3.11424  -0.00036   0.00000   0.00356   0.00358   3.11782
   D24       -0.91791  -0.00014   0.00000   0.00323   0.00323  -0.91469
   D25        1.17883   0.00056   0.00000   0.00640   0.00638   1.18521
   D26        1.00142  -0.00027   0.00000   0.00635   0.00636   1.00778
   D27       -0.53634   0.00036   0.00000   0.01348   0.01348  -0.52286
   D28        2.97293   0.00000   0.00000   0.00574   0.00574   2.97868
   D29       -1.90760  -0.00048   0.00000  -0.00662  -0.00661  -1.91421
   D30        2.83783   0.00015   0.00000   0.00051   0.00051   2.83834
   D31        0.06392  -0.00021   0.00000  -0.00723  -0.00723   0.05669
   D32       -0.82790   0.00009   0.00000  -0.00492  -0.00492  -0.83282
   D33       -3.08099  -0.00017   0.00000  -0.00516  -0.00516  -3.08615
   D34        1.09655  -0.00089   0.00000  -0.00882  -0.00881   1.08774
   D35        1.27819   0.00021   0.00000  -0.00586  -0.00586   1.27233
   D36       -0.97490  -0.00005   0.00000  -0.00610  -0.00609  -0.98100
   D37       -3.08054  -0.00077   0.00000  -0.00976  -0.00975  -3.09029
   D38       -3.00928   0.00042   0.00000  -0.00265  -0.00266  -3.01193
   D39        1.02082   0.00016   0.00000  -0.00290  -0.00289   1.01793
   D40       -1.08482  -0.00055   0.00000  -0.00656  -0.00655  -1.09137
   D41       -0.04402  -0.00005   0.00000   0.00039   0.00039  -0.04364
   D42       -1.88430   0.00021   0.00000   0.00219   0.00218  -1.88212
   D43        1.76183   0.00048   0.00000   0.00345   0.00346   1.76529
   D44        1.76779  -0.00029   0.00000  -0.00218  -0.00218   1.76560
   D45       -0.07248  -0.00004   0.00000  -0.00038  -0.00039  -0.07287
   D46       -2.70954   0.00024   0.00000   0.00087   0.00089  -2.70866
   D47       -1.80460  -0.00044   0.00000  -0.00060  -0.00063  -1.80523
   D48        2.63831  -0.00019   0.00000   0.00120   0.00116   2.63947
   D49        0.00125   0.00009   0.00000   0.00246   0.00244   0.00369
   D50       -1.81742  -0.00021   0.00000  -0.00390  -0.00387  -1.82129
   D51        1.33010   0.00014   0.00000   0.01803   0.01809   1.34819
   D52        0.09649  -0.00003   0.00000  -0.00507  -0.00504   0.09145
   D53       -3.03917   0.00032   0.00000   0.01686   0.01691  -3.02226
   D54        2.84032  -0.00023   0.00000  -0.00418  -0.00418   2.83614
   D55       -0.29534   0.00012   0.00000   0.01775   0.01777  -0.27757
   D56       -1.24329  -0.00035   0.00000  -0.03649  -0.03659  -1.27988
   D57        1.87913   0.00011   0.00000   0.00071   0.00068   1.87981
   D58        3.06096  -0.00057   0.00000  -0.03616  -0.03626   3.02470
   D59       -0.09981  -0.00012   0.00000   0.00104   0.00102  -0.09879
   D60        0.38616  -0.00024   0.00000  -0.03426  -0.03433   0.35183
   D61       -2.77461   0.00021   0.00000   0.00294   0.00294  -2.77167
   D62        0.16273   0.00003   0.00000  -0.00493  -0.00485   0.15788
   D63       -2.99606   0.00049   0.00000   0.02866   0.02836  -2.96770
   D64       -0.16182   0.00003   0.00000   0.00642   0.00634  -0.15548
   D65        2.97456  -0.00026   0.00000  -0.01279  -0.01263   2.96193
         Item               Value     Threshold  Converged?
 Maximum Force            0.007068     0.000450     NO 
 RMS     Force            0.001561     0.000300     NO 
 Maximum Displacement     0.091446     0.001800     NO 
 RMS     Displacement     0.012963     0.001200     NO 
 Predicted change in Energy=-4.553330D-04
 Lowest energy point so far.  Saving SCF results.
 GradGradGradGradGradGradGradGradGradGradGradGradGradGradGradGradGradGrad

 Leave Link  103 at Tue Jun 28 22:21:13 2016, MaxMem=   268435456 cpu:        15.4
 (Enter /n/sw/g09_D.01/g09/l202.exe)
                          Input orientation:                          
 ---------------------------------------------------------------------
 Center     Atomic      Atomic             Coordinates (Angstroms)
 Number     Number       Type             X           Y           Z
 ---------------------------------------------------------------------
      1          6           0        1.731561   -0.642939   -0.133609
      2          6           0        1.699220   -0.112072    1.152911
      3          6           0        0.847161   -1.692726   -0.467284
      4          6           0       -0.056018   -2.231415    0.426951
      5          6           0       -1.291543   -0.346018    1.027935
      6          6           0       -0.379655    0.660757    1.326371
      7          1           0        1.451899   -0.741574    2.005765
      8          1           0        0.741153   -1.944724   -1.524876
      9          1           0        0.148109   -2.254069    1.496047
     10          1           0       -0.815937   -2.931263    0.077724
     11          6           0        2.530753    0.041002   -1.211017
     12          1           0        2.345898    1.124286   -1.207086
     13          1           0        3.607868   -0.105937   -1.046051
     14          1           0        2.282834   -0.347042   -2.206136
     15          1           0        2.289851    0.775567    1.385414
     16          1           0       -0.149573    1.046669    2.315369
     17          1           0       -1.863094   -0.940394    1.734171
     18          6           0       -0.321868    1.554715    0.147852
     19          8           0        0.237816    2.602750   -0.014046
     20          8           0       -1.092346    0.990666   -0.855692
     21          6           0       -1.801797   -0.094726   -0.327560
     22          8           0       -2.670082   -0.621672   -0.962152
 ---------------------------------------------------------------------
                    Distance matrix (angstroms):
                    1          2          3          4          5
     1  C    0.000000
     2  C    1.392121   0.000000
     3  C    1.412641   2.418574   0.000000
     4  C    2.456201   2.845960   1.380426   0.000000
     5  C    3.252154   3.002501   2.936556   2.332901   0.000000
     6  C    2.878958   2.224651   3.203304   3.046039   1.390755
     7  H    2.159830   1.088486   2.717788   2.643122   2.939233
     8  H    2.147365   3.383348   1.092356   2.127746   3.633808
     9  H    2.785470   2.666803   2.158345   1.088645   2.435649
    10  H    3.430865   3.928088   2.144039   1.090516   2.795102
    11  C    1.505752   2.510584   2.528524   3.812899   4.446644
    12  H    2.157046   2.741598   3.275526   4.438468   4.515317
    13  H    2.154402   2.911771   3.236413   4.484579   5.325719
    14  H    2.164907   3.417457   2.625952   3.994275   4.820310
    15  H    2.152041   1.091241   3.406804   3.932390   3.769897
    16  H    3.520076   2.472251   4.030002   3.784271   2.213856
    17  H    4.061851   3.703250   3.571819   2.577031   1.085690
    18  C    3.020841   2.805908   3.505837   3.805700   2.308160
    19  O    3.574923   3.296628   4.362091   4.863124   3.481364
    20  O    3.341336   3.611559   3.333638   3.619524   2.318287
    21  C    3.580891   3.801212   3.096790   2.860502   1.469991
    22  O    4.478995   4.880981   3.709858   3.369601   2.436555
                    6          7          8          9         10
     6  C    0.000000
     7  H    2.404724   0.000000
     8  H    4.021735   3.797125   0.000000
     9  H    2.967076   2.060903   3.094087   0.000000
    10  H    3.827802   3.695289   2.442563   1.843805   0.000000
    11  C    3.910614   3.481959   2.691521   4.274639   4.657848
    12  H    3.749919   3.821398   3.477789   4.852884   5.300510
    13  H    4.702823   3.790227   3.439253   4.800695   5.367997
    14  H    4.536861   4.311174   2.322387   4.679740   4.636442
    15  H    2.672626   1.840847   4.274136   3.711872   5.009647
    16  H    1.086271   2.420409   4.948667   3.413909   4.612487
    17  H    2.220491   3.332037   4.290941   2.413998   2.793549
    18  C    1.480340   3.445437   4.021705   4.067598   4.513648
    19  O    2.439124   4.091228   4.818244   5.086957   5.634192
    20  O    2.319087   4.202592   3.525059   4.194963   4.040940
    21  C    2.308404   4.055781   3.364916   3.433721   3.030201
    22  O    3.482530   5.080712   3.701845   4.080400   3.139013
                   11         12         13         14         15
    11  C    0.000000
    12  H    1.098950   0.000000
    13  H    1.099537   1.769732   0.000000
    14  H    1.096496   1.779574   1.777539   0.000000
    15  H    2.709072   2.616448   2.902799   3.762915   0.000000
    16  H    4.542126   4.317532   5.171654   5.320060   2.624710
    17  H    5.379885   5.534393   6.193334   5.750375   4.507007
    18  C    3.503612   3.022929   4.430124   3.992795   2.993277
    19  O    3.640447   2.837818   4.445140   4.205786   3.083494
    20  O    3.762308   3.458735   4.830195   3.873629   4.063013
    21  C    4.423789   4.411681   5.457182   4.502991   4.520318
    22  O    5.248786   5.316805   6.299657   5.114127   5.662533
                   16         17         18         19         20
    16  H    0.000000
    17  H    2.687446   0.000000
    18  C    2.232919   3.334270   0.000000
    19  O    2.828009   4.474814   1.199097   0.000000
    20  O    3.308714   3.321210   1.385239   2.253112   0.000000
    21  C    3.319292   2.229270   2.266465   3.396276   1.400115
    22  O    4.458528   2.832484   3.388640   4.444286   2.258367
                   21         22
    21  C    0.000000
    22  O    1.197622   0.000000
 Stoichiometry    C9H10O3
 Framework group  C1[X(C9H10O3)]
 Deg. of freedom    60
 Full point group                 C1      NOp   1
 RotChk:  IX=0 Diff= 4.73D-02
 Largest Abelian subgroup         C1      NOp   1
 Largest concise Abelian subgroup C1      NOp   1
                         Standard orientation:                         
 ---------------------------------------------------------------------
 Center     Atomic      Atomic             Coordinates (Angstroms)
 Number     Number       Type             X           Y           Z
 ---------------------------------------------------------------------
      1          6           0        1.757128   -0.588166   -0.128084
      2          6           0        1.703535   -0.056618    1.157445
      3          6           0        0.909073   -1.667320   -0.462422
      4          6           0        0.021802   -2.234328    0.430229
      5          6           0       -1.277430   -0.390117    1.024628
      6          6           0       -0.400372    0.646908    1.323875
      7          1           0        1.474893   -0.692638    2.010676
      8          1           0        0.814476   -1.924390   -1.519876
      9          1           0        0.223565   -2.248476    1.499920
     10          1           0       -0.713437   -2.959622    0.080091
     11          6           0        2.536153    0.120263   -1.204438
     12          1           0        2.315361    1.196803   -1.202844
     13          1           0        3.617092    0.009497   -1.036259
     14          1           0        2.304073   -0.277399   -2.199581
     15          1           0        2.263662    0.850546    1.390076
     16          1           0       -0.186031    1.041836    2.312851
     17          1           0       -1.830878   -1.002049    1.730288
     18          6           0       -0.369040    1.540414    0.144014
     19          8           0        0.155930    2.606227   -0.018110
     20          8           0       -1.117510    0.949450   -0.860695
     21          6           0       -1.791950   -0.158098   -0.332689
     22          8           0       -2.640443   -0.714645   -0.968780
 ---------------------------------------------------------------------
 Rotational constants (GHZ):      1.2232247      0.9814008      0.7487185
 Leave Link  202 at Tue Jun 28 22:21:13 2016, MaxMem=   268435456 cpu:         0.2
 (Enter /n/sw/g09_D.01/g09/l301.exe)
 Standard basis: CC-pVDZ (5D, 7F)
 Ernie: Thresh=  0.10000D-02 Tol=  0.10000D-05 Strict=F.
 Ernie:  24 primitive shells out of 314 were deleted.
 There are   230 symmetry adapted cartesian basis functions of A   symmetry.
 There are   218 symmetry adapted basis functions of A   symmetry.
   218 basis functions,   466 primitive gaussians,   230 cartesian basis functions
    44 alpha electrons       44 beta electrons
       nuclear repulsion energy       716.0848579103 Hartrees.
 IExCor= 1715 DFT=T Ex+Corr=B972 ExCW=0 ScaHFX=  0.210000
 ScaDFX=  1.000000  1.000000  1.000000  1.000000 ScalE2=  1.000000  1.000000
 IRadAn=      0 IRanWt=     -1 IRanGd=            0 ICorTp=0 IEmpDi=  4
 NAtoms=   22 NActive=   22 NUniq=   22 SFac= 1.00D+00 NAtFMM=   60 NAOKFM=F Big=F
 Integral buffers will be    131072 words long.
 Raffenetti 2 integral format.
 Two-electron integral symmetry is turned on.
 ------------------------------------------------------------------------------
 Polarizable Continuum Model (PCM)
 =================================
 Model                : PCM (using non-symmetric T matrix).
 Atomic radii         : UFF (Universal Force Field).
 Polarization charges : Total charges.
 Charge compensation  : None.
 Solution method      : On-the-fly selection.
 Cavity type          : Scaled VdW (van der Waals Surface) (Alpha=1.100).
 Cavity algorithm     : GePol (No added spheres)
                        Default sphere list used, NSphG=   22.
                        Lebedev-Laikov grids with approx.  5.0 points / Ang**2.
                        Smoothing algorithm: Karplus/York (Gamma=1.0000).
                        Polarization charges: spherical gaussians, with
                                              point-specific exponents (IZeta= 3).
                        Self-potential: point-specific (ISelfS= 7).
                        Self-field    : sphere-specific E.n sum rule (ISelfD= 2).
 1st derivatives      : Analytical E(r).r(x)/FMM algorithm (CHGder, D1EAlg=3).
                        Cavity 1st derivative terms included.
 Solvent              : o-Xylene, Eps=   2.545400 Eps(inf)=   2.266530
 ------------------------------------------------------------------------------
 GePol: Number of generator spheres                  =      22
 GePol: Total number of spheres                      =      22
 GePol: Number of exposed spheres                    =      22 (100.00%)
 GePol: Number of points                             =    1684
 GePol: Average weight of points                     =       0.13
 GePol: Minimum weight of points                     =   0.20D-10
 GePol: Maximum weight of points                     =    0.20577
 GePol: Number of points with low weight             =     106
 GePol: Fraction of low-weight points (<1% of avg)   =       6.29%
 GePol: Cavity surface area                          =    223.551 Ang**2
 GePol: Cavity volume                                =    236.999 Ang**3
 Leave Link  301 at Tue Jun 28 22:21:13 2016, MaxMem=   268435456 cpu:         0.3
 (Enter /n/sw/g09_D.01/g09/l302.exe)
 NPDir=0 NMtPBC=     1 NCelOv=     1 NCel=       1 NClECP=     1 NCelD=      1
         NCelK=      1 NCelE2=     1 NClLst=     1 CellRange=     0.0.
 One-electron integrals computed using PRISM.
 NBasis=   218 RedAO= T EigKep=  8.87D-04  NBF=   218
 NBsUse=   218 1.00D-06 EigRej= -1.00D+00 NBFU=   218
 Precomputing XC quadrature grid using
 IXCGrd= 4 IRadAn=           0 IRanWt=          -1 IRanGd=           0 AccXCQ= 0.00D+00.
 Generated NRdTot=       0 NPtTot=           0 NUsed=           0 NTot=          32
 NSgBfM=   230   230   230   230   230 MxSgAt=    22 MxSgA2=    22.
 Leave Link  302 at Tue Jun 28 22:21:15 2016, MaxMem=   268435456 cpu:         5.2
 (Enter /n/sw/g09_D.01/g09/l303.exe)
 DipDrv:  MaxL=1.
 Leave Link  303 at Tue Jun 28 22:21:16 2016, MaxMem=   268435456 cpu:         0.9
 (Enter /n/sw/g09_D.01/g09/l401.exe)
 Initial guess from the checkpoint file:  "checkpoint.chk"
 B after Tr=     0.000000    0.000000    0.000000
         Rot=    0.999846    0.000195    0.000779   -0.017540 Ang=   2.01 deg.
 Guess basis will be translated and rotated to current coordinates.
 JPrj=2 DoOrth=T DoCkMO=T.
 Generating alternative initial guess.
 ExpMin= 1.22D-01 ExpMax= 1.17D+04 ExpMxC= 4.01D+02 IAcc=1 IRadAn=         1 AccDes= 0.00D+00
 Harris functional with IExCor= 1715 and IRadAn=       1 diagonalized for initial guess.
 HarFok:  IExCor= 1715 AccDes= 0.00D+00 IRadAn=         1 IDoV= 1 UseB2=F ITyADJ=14
 ICtDFT=  3500011 ScaDFX=  1.000000  1.000000  1.000000  1.000000
 FoFCou: FMM=F IPFlag=           0 FMFlag=      100000 FMFlg1=           0
         NFxFlg=           0 DoJE=T BraDBF=F KetDBF=T FulRan=T
         wScrn=  0.000000 ICntrl=     500 IOpCl=  0 I1Cent=   200000004 NGrid=           0
         NMat0=    1 NMatS0=      1 NMatT0=    0 NMatD0=    1 NMtDS0=    0 NMtDT0=    0
 Petite list used in FoFCou.
 Harris En= -558.858048651391    
 Leave Link  401 at Tue Jun 28 22:21:20 2016, MaxMem=   268435456 cpu:        11.5
 (Enter /n/sw/g09_D.01/g09/l502.exe)
 Closed shell SCF:
 Using DIIS extrapolation, IDIIS=  1040.
 Integral symmetry usage will be decided dynamically.
 IVT=      180374 IEndB=      180374 NGot=   268435456 MDV=   268324853
 LenX=   268324853 LenY=   268271512
 Requested convergence on RMS density matrix=1.00D-08 within 128 cycles.
 Requested convergence on MAX density matrix=1.00D-06.
 Requested convergence on             energy=1.00D-06.
 No special actions if energy rises.
 Fock matrices will be formed incrementally for  20 cycles.

 Cycle   1  Pass 1  IDiag  1:
 FoFJK:  IHMeth= 1 ICntrl=       0 DoSepK=F KAlg= 0 I1Cent=   0 FoldK=F
 IRaf= 960000000 NMat=   1 IRICut=       1 DoRegI=T DoRafI=F ISym2E= 0.
 FoFCou: FMM=F IPFlag=           0 FMFlag=      100000 FMFlg1=           0
         NFxFlg=           0 DoJE=F BraDBF=F KetDBF=F FulRan=T
         wScrn=  0.000000 ICntrl=       0 IOpCl=  0 I1Cent=           0 NGrid=           0
         NMat0=    1 NMatS0=      1 NMatT0=    0 NMatD0=    1 NMtDS0=    0 NMtDT0=    0
 Symmetry not used in FoFCou.
 Inv3:  Mode=1 IEnd=     8507568.
 Iteration    1 A*A^-1 deviation from unit magnitude is 6.22D-15 for     58.
 Iteration    1 A*A^-1 deviation from orthogonality  is 5.03D-15 for   1540    673.
 Iteration    1 A^-1*A deviation from unit magnitude is 6.99D-15 for    364.
 Iteration    1 A^-1*A deviation from orthogonality  is 1.11D-14 for   1156   1150.
 E= -574.427248470852    
 DIIS: error= 1.25D-03 at cycle   1 NSaved=   1.
 NSaved= 1 IEnMin= 1 EnMin= -574.427248470852     IErMin= 1 ErrMin= 1.25D-03
 ErrMax= 1.25D-03  0.00D+00 EMaxC= 1.00D-01 BMatC= 6.52D-04 BMatP= 6.52D-04
 IDIUse=3 WtCom= 9.87D-01 WtEn= 1.25D-02
 Coeff-Com:  0.100D+01
 Coeff-En:   0.100D+01
 Coeff:      0.100D+01
 Gap=     0.700 Goal=   None    Shift=    0.000
 GapD=    0.700 DampG=2.000 DampE=1.000 DampFc=2.0000 IDamp=-1.
 RMSDP=1.95D-04 MaxDP=7.66D-03              OVMax= 8.45D-03

 Cycle   2  Pass 1  IDiag  1:
 RMSU=  1.95D-04    CP:  1.00D+00
 E= -574.428278293909     Delta-E=       -0.001029823057 Rises=F Damp=F
 DIIS: error= 3.39D-04 at cycle   2 NSaved=   2.
 NSaved= 2 IEnMin= 2 EnMin= -574.428278293909     IErMin= 2 ErrMin= 3.39D-04
 ErrMax= 3.39D-04  0.00D+00 EMaxC= 1.00D-01 BMatC= 4.10D-05 BMatP= 6.52D-04
 IDIUse=3 WtCom= 9.97D-01 WtEn= 3.39D-03
 Coeff-Com:  0.229D-01 0.977D+00
 Coeff-En:   0.000D+00 0.100D+01
 Coeff:      0.228D-01 0.977D+00
 Gap=     0.183 Goal=   None    Shift=    0.000
 RMSDP=5.82D-05 MaxDP=2.05D-03 DE=-1.03D-03 OVMax= 4.20D-03

 Cycle   3  Pass 1  IDiag  1:
 RMSU=  5.80D-05    CP:  1.00D+00  1.01D+00
 E= -574.428225960078     Delta-E=        0.000052333831 Rises=F Damp=F
 DIIS: error= 6.82D-04 at cycle   3 NSaved=   3.
 NSaved= 3 IEnMin= 2 EnMin= -574.428278293909     IErMin= 2 ErrMin= 3.39D-04
 ErrMax= 6.82D-04  0.00D+00 EMaxC= 1.00D-01 BMatC= 1.13D-04 BMatP= 4.10D-05
 IDIUse=3 WtCom= 2.77D-01 WtEn= 7.23D-01
 Coeff-Com: -0.451D-01 0.659D+00 0.386D+00
 Coeff-En:   0.000D+00 0.684D+00 0.316D+00
 Coeff:     -0.125D-01 0.677D+00 0.335D+00
 Gap=     0.182 Goal=   None    Shift=    0.000
 RMSDP=3.68D-05 MaxDP=1.43D-03 DE= 5.23D-05 OVMax= 2.71D-03

 Cycle   4  Pass 1  IDiag  1:
 RMSU=  1.49D-05    CP:  1.00D+00  1.06D+00  4.42D-01
 E= -574.428317620038     Delta-E=       -0.000091659960 Rises=F Damp=F
 DIIS: error= 8.58D-05 at cycle   4 NSaved=   4.
 NSaved= 4 IEnMin= 4 EnMin= -574.428317620038     IErMin= 4 ErrMin= 8.58D-05
 ErrMax= 8.58D-05  0.00D+00 EMaxC= 1.00D-01 BMatC= 1.43D-06 BMatP= 4.10D-05
 IDIUse=1 WtCom= 1.00D+00 WtEn= 0.00D+00
 Coeff-Com: -0.227D-01 0.246D+00 0.139D+00 0.638D+00
 Coeff:     -0.227D-01 0.246D+00 0.139D+00 0.638D+00
 Gap=     0.182 Goal=   None    Shift=    0.000
 RMSDP=6.89D-06 MaxDP=1.47D-04 DE=-9.17D-05 OVMax= 4.03D-04

 Cycle   5  Pass 1  IDiag  1:
 RMSU=  5.10D-06    CP:  1.00D+00  1.06D+00  4.20D-01  7.14D-01
 E= -574.428318759982     Delta-E=       -0.000001139945 Rises=F Damp=F
 DIIS: error= 2.67D-05 at cycle   5 NSaved=   5.
[...]
 454,0.02239061,0.33973176,0.00044066,0.02430037,0.00413992,0.00100376,
 0.00053155,0.00063679,0.00150819,0.00093035,-0.00324780,0.00082526,0.0
 0026942,0.00091956,0.00046999,-0.00012154,0.00023776,-0.00004776,0.000
 00614,-0.00004175,-0.00027128,-0.00003032,0.00034540,0.00018003,0.0003
 1230,0.00010887,-0.00003505,-0.00005409,0.00007412,0.00020853,0.000133
 27,-0.00016857,-0.00364105,-0.04772530,-0.05575672,0.00005389,0.048855
 98,0.05770237,-0.01482721,0.00442297,0.00296292,0.00092520,-0.00177655
 ,-0.00117279,0.00013309,-0.00053150,0.00125299,0.00041637,-0.00065233,
 0.00011231,0.00015578,0.00050551,0.00013964,-0.00115432,-0.00011473,-0
 .00009589,0.00028429,-0.00011705,0.00019402,-0.00040295,0.00029606,0.0
 0002871,-0.00010013,0.00000804,0.00000391,-0.00010475,0.00000752,0.000
 05660,-0.27637474,0.09697550,0.00117045,0.00270768,-0.00198970,-0.0003
 8702,0.29930803,-0.01560296,0.00577857,0.00179804,0.00029586,-0.000424
 34,-0.00096643,-0.00064785,-0.00191897,0.00103056,0.00133646,-0.000538
 30,-0.00049637,-0.00035407,0.00078961,0.00003197,-0.00083295,-0.000108
 33,-0.00012219,0.00035844,-0.00007796,0.00004294,-0.00037296,0.0002042
 4,-0.00009812,-0.00011686,0.00012994,0.00002033,-0.00011073,0.00008877
 ,0.00000493,0.09454562,-0.07937032,-0.00094944,0.02917401,-0.01034747,
 0.00041511,-0.10220161,0.08486087,0.02309278,-0.00915172,-0.00282011,0
 .00086082,0.00152543,-0.00065502,-0.00051278,-0.00004449,-0.00049562,-
 0.00030487,0.00029491,-0.00009225,0.00058702,-0.00004137,0.00030285,-0
 .00007454,0.00012166,0.00028053,-0.00135820,0.00045301,-0.00036123,0.0
 0017505,-0.00009824,0.00026434,0.00003462,0.00001492,0.00008127,0.0000
 9026,-0.00004497,-0.00003755,0.00363823,-0.00140351,-0.04229821,0.0052
 7442,-0.00202390,-0.00092252,-0.00567612,-0.00096612,0.04616746,0.0060
 3967,0.00313813,0.01903258,-0.00089233,-0.00221472,0.00226561,0.000588
 33,0.00054297,0.00097835,0.00011099,0.00012587,0.00003941,0.00003474,0
 .00011085,-0.00001698,-0.00020956,0.00003200,-0.00005596,-0.00054192,0
 .00032410,0.00098854,0.00000670,-0.00023094,-0.00029081,0.00008271,-0.
 00001658,0.00005058,0.00000417,0.00004066,-0.00004897,-0.09220669,-0.0
 1892086,-0.10719529,-0.00158735,0.00068711,-0.00015981,-0.01090843,-0.
 00573784,-0.02590621,0.09916220,0.00710409,0.00116874,0.01183264,-0.00
 211844,-0.00033145,0.00125186,0.00027841,0.00048351,0.00123563,0.00024
 856,0.00013813,-0.00003105,-0.00045033,-0.00023587,-0.00030182,0.00063
 945,-0.00006779,0.00013905,-0.00014433,0.00037207,0.00031336,-0.000487
 63,-0.00011729,-0.00014682,0.00002062,-0.00002874,0.00001657,0.0000439
 0,0.00003168,-0.00003470,-0.01946935,-0.05361989,-0.03810909,-0.013129
 81,-0.00190502,-0.02735152,0.00505285,0.00127786,0.01162004,0.02227898
 ,0.05261688,-0.00838592,-0.00519944,-0.01930614,0.00178989,0.00342116,
 -0.00269512,-0.00189089,-0.00255530,0.00086826,0.00091662,-0.00031507,
 0.00018494,0.00045727,0.00047910,0.00047106,-0.00081968,-0.00012455,0.
 00009319,0.00077641,-0.00065058,-0.00096429,0.00021893,0.00095971,0.00
 063419,-0.00019020,-0.00003879,0.00014231,-0.00001874,0.00004185,-0.00
 001866,-0.10321352,-0.03651745,-0.27062969,-0.00096843,0.00097629,-0.0
 0296091,0.00136851,0.00002861,0.00128388,0.11028054,0.03910862,0.29329
 996,0.00412631,0.00304411,0.00168697,-0.12181569,-0.14112874,-0.032589
 01,0.00439069,-0.00325305,0.00280824,-0.00168682,0.00014786,-0.0005398
 3,-0.00126153,0.00043240,-0.00016907,-0.00290802,-0.00395361,-0.001514
 85,-0.00096605,-0.00322296,-0.00213367,0.00024224,0.00043094,0.0001402
 1,-0.00015682,0.00037804,0.00016261,0.00032278,-0.00028777,-0.00015244
 ,-0.00258377,0.00198874,-0.00045141,0.00048259,0.00052225,-0.00019247,
 -0.00032585,0.00002032,0.00048069,0.00006781,0.00021449,-0.00014570,0.
 12231597,-0.00808108,-0.00661272,0.00164193,-0.13694684,-0.24812471,-0
 .04942762,-0.00093520,0.00246921,-0.00339012,0.00096775,0.00034530,0.0
 0056623,0.00044764,-0.00070221,-0.00012505,0.00333230,0.00197511,0.000
 57961,-0.00761937,-0.00839709,-0.00607354,-0.00048058,-0.00048636,-0.0
 0014829,0.00022068,0.00010484,-0.00023066,-0.00019081,0.00018015,-0.00
 005231,0.00174346,-0.00031438,0.00187889,0.00020282,0.00006538,-0.0004
 6509,0.00026912,0.00003480,-0.00046352,-0.00004777,0.00012204,0.000248
 75,0.14719819,0.25766274,-0.01709397,-0.02261666,-0.00214073,-0.026942
 75,-0.04730130,-0.06513212,0.00152094,-0.00242435,-0.00492324,0.000935
 27,0.00065226,-0.00095003,-0.00001466,0.00053645,0.00014830,-0.0011214
 0,0.00063626,-0.00034819,0.01271111,0.01753507,0.00618261,-0.00097689,
 -0.00111537,-0.00020419,-0.00006315,-0.00036411,0.00053852,-0.00011223
 ,0.00006200,0.00037064,-0.00100432,-0.00114223,0.00131593,0.00015512,0
 .00067981,-0.00051605,0.00001527,0.00002362,-0.00007967,0.00000925,0.0
 0024659,0.00017212,0.03162000,0.05526094,0.06556835,-0.00243036,-0.003
 91814,-0.00473370,-0.01032127,0.00851185,0.00974605,0.00388635,0.00419
 472,-0.00099289,-0.00394456,0.00219677,0.00286662,-0.00198301,-0.00884
 903,-0.02034283,-0.03505012,-0.03100398,-0.05632510,0.00088705,-0.0001
 9639,0.00084400,0.00020599,-0.00018751,0.00002362,0.00045603,-0.000468
 34,-0.00001760,-0.00001272,0.00008902,0.00002237,0.00030591,-0.0003011
 5,0.00023969,-0.00002268,0.00000099,0.00005466,0.00012195,0.00011557,-
 0.00007067,0.00003067,-0.00009743,0.00004844,-0.00007172,-0.00030698,0
 .00031669,0.04943485,0.00145743,0.00190724,0.00311795,0.00604196,-0.00
 437619,-0.00557217,-0.00206288,-0.00214107,0.00076042,0.00127565,-0.00
 131830,-0.00191628,0.00023818,0.00381059,-0.01762426,-0.04164422,-0.08
 711624,-0.10183866,-0.00015687,0.00000118,-0.00062598,-0.00012855,0.00
 006562,-0.00002348,-0.00021172,0.00016659,-0.00001145,0.00018782,-0.00
 022690,0.00000708,-0.00015220,0.00017973,-0.00010385,0.00004907,0.0000
 4008,-0.00006205,-0.00006485,-0.00002734,-0.00000305,-0.00001667,0.000
 06886,-0.00006749,-0.00035901,0.00054110,-0.00001023,0.03175227,0.0818
 5303,-0.00006705,0.00055185,0.00069329,0.00074508,-0.00000018,-0.00089
 776,-0.00018798,-0.00029915,-0.00003781,0.00006471,0.00045862,0.000168
 52,0.00239822,0.00281038,0.00369844,-0.06464758,-0.09719168,-0.3119615
 1,-0.00069621,0.00011352,0.00069012,0.00002312,0.00002740,0.00004108,0
 .00003264,-0.00006721,0.00000735,-0.00003508,0.00007317,-0.00000357,0.
 00012996,-0.00007123,0.00004640,-0.00003662,-0.00003762,0.00001885,-0.
 00003218,-0.00002604,0.00001761,-0.00002773,-0.00001968,0.00007924,0.0
 0020110,0.00008888,-0.00007892,0.06776565,0.10387065,0.31968350,-0.001
 64479,-0.00262617,-0.00253450,-0.00248553,0.00084951,0.00195390,0.0027
 9120,0.00293386,-0.00148453,-0.00682452,0.00284788,0.00539698,-0.12626
 439,-0.11223603,0.10249938,0.00179276,-0.00353985,0.01340234,0.0001894
 4,-0.00019114,-0.00003070,0.00025654,-0.00011280,0.00003241,-0.0003252
 4,-0.00040838,0.00042340,0.00030333,-0.00006713,0.00015571,0.00011382,
 -0.00002778,-0.00002148,-0.00002341,0.00001264,-0.00000426,0.00001685,
 0.00004868,0.00004897,0.00001785,-0.00001701,0.00006954,-0.00016380,0.
 00009228,-0.00002250,-0.00134046,0.00161093,-0.00023695,0.12540214,0.0
 0200530,0.00292953,0.00288756,0.00334296,-0.00201228,-0.00234754,-0.00
 310847,-0.00308449,0.00113664,0.00862699,-0.00327650,-0.00557438,-0.10
 133815,-0.12675674,0.11611965,-0.00995176,-0.00715116,0.01460472,-0.00
 046157,0.00025454,0.00004448,-0.00032109,0.00025718,-0.00011727,0.0002
 1776,0.00056398,-0.00085693,-0.00013770,0.00001465,-0.00022495,-0.0000
 9335,0.00003284,-0.00000332,0.00006015,-0.00000364,-0.00002388,-0.0000
 1260,-0.00003364,-0.00007935,-0.00001203,0.00003431,-0.00008497,-0.000
 00713,0.00005572,0.00001310,0.00281051,-0.00040767,-0.00038010,0.10489
 421,0.14105868,0.00044332,0.00062895,0.00031137,-0.00001154,-0.0006238
 5,-0.00020751,-0.00089265,-0.00053789,0.00056269,0.00123924,-0.0004141
 1,-0.00154836,0.10034586,0.12011751,-0.18427536,-0.00686402,-0.0079118
 3,0.01130151,-0.00001079,0.00001154,0.00002521,0.00005110,-0.00008673,
 0.00004483,-0.00034893,0.00043688,0.00072963,0.00010056,-0.00016552,-0
 .00019733,-0.00002817,-0.00003164,-0.00003728,-0.00002010,-0.00002143,
 0.00000827,-0.00000763,-0.00001489,0.00000971,-0.00001276,0.00001685,0
 .00001678,-0.00012559,0.00005628,-0.00002169,0.00104886,0.00044517,0.0
 0027647,-0.10749427,-0.12450115,0.18389787,-0.00066327,0.00267330,0.00
 028911,-0.00700990,0.00656398,-0.00249590,0.00075862,0.00080415,-0.000
 33965,-0.00139313,-0.00034488,-0.00022610,-0.00995057,-0.02026613,0.00
 956476,-0.05915200,0.00458337,-0.01103688,-0.00071522,-0.00064197,0.00
 037775,0.00012099,-0.00041092,-0.00023166,-0.00004498,0.00016376,0.000
 09353,0.00002175,-0.00022721,0.00014221,-0.00035541,0.00091066,0.00081
 133,-0.00164731,-0.00034625,0.00050835,0.00004503,-0.00052777,-0.00003
 095,0.00012180,-0.00020399,-0.00013611,-0.00159717,0.00014176,-0.00079
 870,-0.00187353,0.00327749,-0.00471938,0.00006461,-0.00662143,-0.00499
 755,0.41137467,0.00423065,0.00174207,0.00073072,0.01514807,-0.00883919
 ,0.00070749,-0.00243687,-0.00067358,0.00029880,-0.00018395,-0.00195477
 ,-0.00039154,-0.01336828,-0.02503888,0.01549291,-0.01882490,-0.1211017
 4,0.05261656,-0.00115201,-0.00038894,-0.00014217,0.00019201,-0.0002898
 7,0.00002448,-0.00017435,0.00032269,0.00021145,0.00006264,-0.00008377,
 -0.00002436,0.00065595,0.00135373,0.00018545,-0.00156636,-0.00042494,0
 .00037485,-0.00029301,-0.00072289,0.00035979,0.00006840,-0.00025936,0.
 00012467,-0.00321856,0.00124528,-0.00119261,0.00397382,0.01032960,-0.0
 1445779,-0.00368996,0.00041794,-0.00220880,0.33773847,0.88732696,-0.00
 067332,-0.00155559,0.00325109,-0.00816595,0.00299152,0.00237607,-0.001
 09608,-0.00591285,0.00005082,0.00772365,-0.00484749,-0.00702642,0.0090
 9230,0.02535656,0.00212983,0.00237578,0.05941321,-0.18404496,0.0013173
 7,-0.00088824,0.00007227,-0.00045337,-0.00000700,-0.00050408,-0.001267
 06,0.00118638,-0.00039917,0.00023389,-0.00079405,-0.00012797,0.0000759
 5,-0.00026291,0.00045036,0.00071358,0.00044365,0.00003178,0.00001725,0
 .00030802,-0.00039376,0.00032959,-0.00038525,-0.00086237,0.00017386,-0
 .00021313,0.00007656,0.00082337,0.01509055,-0.00971353,-0.00348025,-0.
 00176129,-0.00409899,-0.00696705,-0.16524448,0.45692952,-0.00050447,0.
 00003340,0.00137588,-0.00073953,0.00032054,-0.00140558,-0.00082643,-0.
 00135538,0.00057409,0.00134151,-0.00046541,-0.00094527,0.00344023,0.00
 173391,0.00224723,0.01040697,-0.01783966,0.00488485,0.00010036,0.00060
 985,-0.00002632,-0.00014317,0.00019419,0.00003268,-0.00018994,0.000157
 28,-0.00002757,0.00014024,-0.00005583,-0.00005494,-0.00030901,-0.00053
 678,-0.00042390,0.00106202,0.00045574,-0.00032450,-0.00001304,0.000411
 65,-0.00012447,0.00002157,0.00022321,-0.00002111,0.00166091,-0.0002801
 0,0.00068030,-0.00074079,0.00089184,0.00037319,-0.00027237,0.00055133,
 0.00102131,-0.21742945,-0.28034582,0.04994582,0.22449743,-0.00009264,0
 .00029623,0.00290022,-0.00442043,-0.00019351,-0.00030790,-0.00110178,-
 0.00201479,0.00079831,0.00168102,-0.00049727,-0.00174684,0.00131163,0.
 00128863,0.00998577,-0.01856814,-0.03556261,0.01674725,0.00080955,-0.0
 0008899,-0.00013128,-0.00024023,0.00021234,-0.00010097,-0.00018290,0.0
 0030238,-0.00002129,0.00015731,-0.00010537,-0.00003149,-0.00021426,-0.
 00058227,-0.00007304,0.00082701,0.00000629,-0.00022183,0.00016765,0.00
 033484,-0.00025320,-0.00002248,0.00012695,-0.00022551,0.00096363,-0.00
 030179,0.00039224,-0.00112417,-0.00014680,0.00154138,-0.00037588,-0.00
 209569,-0.00053380,-0.27692306,-0.62203307,0.10804036,0.34790880,0.701
 76945,0.00034268,-0.00013194,-0.00196422,0.00070021,0.00088138,0.00023
 667,0.00064425,0.00166833,-0.00011000,-0.00147986,0.00102076,0.0016713
 2,-0.00132788,-0.00005886,-0.00546228,0.01466179,0.03421944,0.00797085
 ,-0.00019859,0.00021869,0.00007456,0.00015536,-0.00002009,0.00013575,0
 .00029912,-0.00032989,0.00006586,-0.00016770,0.00024405,0.00003453,0.0
 0022319,0.00024148,0.00014292,-0.00054709,-0.00031926,-0.00008031,-0.0
 0000760,-0.00030813,0.00017694,-0.00009078,0.00007558,0.00026273,0.000
 34428,-0.00008921,-0.00013898,-0.00014838,-0.00174719,0.00163811,0.001
 32130,0.00114583,0.00145597,0.04356968,0.10408198,-0.11587759,-0.03087
 048,-0.10023693,0.09747636,0.00067655,-0.00129007,0.00071901,0.0051974
 4,-0.00237054,-0.00193259,0.00094355,0.00112037,0.00046761,-0.00193494
 ,0.00055550,0.00243693,0.01286102,-0.01076787,0.00725863,-0.00556007,-
 0.00973892,-0.02410081,-0.00044714,0.00048635,-0.00012453,-0.00007796,
 -0.00004544,-0.00008044,0.00052778,-0.00054678,-0.00009088,-0.00015242
 ,0.00061003,-0.00004465,0.00026854,0.00032051,-0.00015361,0.00057489,0
 .00010600,-0.00023329,-0.00006890,0.00018291,-0.00027027,0.00017359,-0
 .00000370,-0.00033310,0.00024611,0.00019355,0.00010600,0.00317500,0.00
 285054,-0.00208328,0.00170169,-0.00058537,-0.00014269,-0.07331449,-0.0
 0032777,-0.03967204,-0.02745196,-0.05334332,-0.02567948,0.19061112,-0.
 00022442,-0.00038826,-0.00001327,0.00253835,-0.00104014,-0.00281918,-0
 .00010081,0.00195148,0.00012633,-0.00410099,0.00345380,0.00321395,-0.0
 1458814,-0.02414010,0.03037809,-0.00752164,0.01104514,0.00557816,-0.00
 075890,0.00060759,-0.00002685,0.00020108,-0.00000987,0.00011233,0.0005
 2494,-0.00057834,0.00005098,0.00010250,0.00032205,0.00008129,0.0003978
 2,-0.00020272,-0.00026810,0.00056001,0.00014310,-0.00029730,0.00004169
 ,0.00030926,-0.00023312,0.00004932,0.00008841,-0.00006369,0.00057367,0
 .00002378,0.00029634,-0.00026905,-0.00004829,0.00115368,0.00275139,0.0
 0255996,0.00510749,-0.00223911,-0.07281844,0.01110205,-0.05952991,-0.0
 5354707,-0.04541838,0.14509517,0.27019874,0.00147063,0.00138236,0.0013
 9899,0.00301616,-0.00104764,-0.00231804,-0.00183594,-0.00142101,0.0012
 9287,0.00117878,-0.00031201,-0.00104428,0.00868166,0.02940465,-0.03107
 578,-0.02208224,0.00075034,-0.04984182,-0.00066763,-0.00002087,0.00025
 012,-0.00011370,0.00035590,0.00044338,0.00007187,0.00018723,0.00040604
 ,-0.00003610,0.00020484,-0.00002406,-0.00031896,-0.00003911,-0.0004328
 3,-0.00003012,-0.00027219,-0.00002586,-0.00007361,-0.00020719,0.000354
 51,-0.00031212,0.00023269,0.00056298,0.00013077,0.00004039,0.00003993,
 0.00032013,0.00602397,-0.00351355,-0.00367161,0.00093959,-0.00394248,-
 0.03660624,0.01642384,-0.19302392,-0.01293092,-0.02372693,0.02346579,0
 .07711474,-0.05738153,0.38385669,-0.00210816,-0.00224694,-0.00167458,-
 0.00434888,0.00063578,0.00086281,0.00046665,0.00367754,-0.00094973,-0.
 01024788,0.01070781,0.00092451,-0.09058626,-0.01412907,-0.03764301,-0.
 00772554,-0.00465055,-0.01924920,0.00063453,-0.00038397,0.00001164,0.0
 0034590,0.00029159,-0.00015999,-0.00000675,-0.00090699,-0.00010932,0.0
 0125131,-0.00244288,0.00036945,0.00044913,-0.00027460,0.00026918,-0.00
 040585,-0.00002186,-0.00007081,0.00029418,0.00003890,-0.00016447,-0.00
 022239,0.00017381,0.00005809,-0.00027613,0.00005920,0.00003558,0.00129
 416,-0.00476190,0.00129006,0.00660330,0.00041711,0.01862221,-0.0506428
 2,-0.04118212,-0.02959035,0.01224318,0.00965967,0.00238575,-0.06477060
 ,-0.00657809,0.00554943,0.63428739,-0.00079829,0.00051644,-0.00098133,
 -0.00382730,0.00018377,0.00229426,0.00188518,-0.00019913,-0.00135834,0
 .00528603,-0.00563256,0.00063516,0.00285511,-0.07588885,0.04781331,-0.
 00587885,-0.00358017,-0.01737622,0.00079629,-0.00041739,0.00000767,0.0
 0030286,0.00005777,-0.00011431,-0.00065503,-0.00010294,-0.00069274,0.0
 0052876,-0.00186604,0.00016462,-0.00029294,-0.00026416,-0.00004402,-0.
 00071349,-0.00023385,0.00018833,0.00004454,-0.00025951,0.00034081,-0.0
 0025895,0.00018959,0.00040430,-0.00039466,0.00005569,-0.00023800,-0.00
 797712,-0.00386298,0.00275635,0.00649701,-0.00280844,0.01146765,-0.055
 25470,-0.05550492,-0.06650152,0.01219480,0.02065230,0.01028720,-0.0083
 7333,-0.09490290,0.05692421,0.27313836,0.44003193,0.00200463,-0.000549
 95,0.00637042,0.01078491,-0.00697831,-0.00935257,0.00439889,0.00341371
 ,0.00168160,-0.00920652,0.00712405,0.00513576,-0.03170493,0.03083839,-
 0.20537941,-0.03735685,-0.01728262,-0.02075770,-0.00149173,0.00149608,
 -0.00034426,0.00048946,-0.00074812,-0.00119751,0.00100877,-0.00166247,
 -0.00026212,0.00084435,-0.00175691,0.00050045,0.00175279,0.00018736,-0
 .00011048,0.00026690,0.00037184,-0.00072051,0.00024735,0.00058503,-0.0
 0119184,0.00012818,0.00049122,-0.00100294,0.00064739,0.00019829,0.0000
 9937,0.00012903,0.00189676,-0.00108155,-0.00797942,-0.00039584,-0.0055
 4223,0.01290233,-0.01320218,0.05289576,-0.01486389,-0.01243686,-0.0122
 3548,0.00800594,0.06014363,-0.15769694,0.33662719,0.11378377,0.6621985
 4,-0.00046784,-0.00092393,-0.00239658,-0.00157324,0.00119846,0.0021170
 4,0.00048969,0.00072571,-0.00078536,0.00148251,-0.00341537,-0.00197732
 ,-0.01364720,-0.01109247,-0.02834459,0.00474422,0.00241389,-0.00585586
 ,0.00031777,-0.00009201,0.00005644,-0.00004770,-0.00014562,0.00019399,
 -0.00053464,0.00071658,0.00022724,-0.00026959,0.00061945,-0.00007541,-
 0.00032179,-0.00001207,-0.00005850,0.00016565,-0.00001106,0.00011399,-
 0.00012813,-0.00002283,0.00021069,0.00010587,-0.00015637,0.00013917,-0
 .00004203,0.00001999,0.00004504,-0.00200672,-0.00007430,-0.00025370,0.
 00009100,-0.00027567,-0.00191578,0.01328179,0.00469393,0.01854307,-0.0
 0629427,-0.00687696,-0.00412976,-0.04317880,-0.05692488,-0.01885497,-0
 .42652846,-0.21910427,-0.27763475,0.47436192,-0.00027795,-0.00073470,-
 0.00173473,-0.00098222,0.00103377,0.00121950,-0.00010843,-0.00019926,0
 .00020557,0.00148666,-0.00117781,0.00043022,-0.00891886,0.01487642,-0.
 00820817,0.00191594,0.00302626,0.00112968,0.00016625,-0.00013939,0.000
 02103,-0.00019003,0.00008624,0.00027017,0.00039323,0.00018152,0.000246
 44,-0.00057905,0.00168719,-0.00010210,-0.00016324,0.00004198,0.0000370
 0,0.00023241,0.00005432,0.00003526,-0.00003754,0.00002032,0.00007598,0
 .00008047,-0.00015361,0.00004979,-0.00008917,0.00005812,0.00007016,0.0
 0105377,0.00070817,-0.00089521,0.00075376,-0.00054907,-0.00123668,0.00
 715049,0.00739609,0.02444150,-0.00527767,-0.00782018,-0.00542485,-0.06
 412780,-0.04302718,-0.02844155,-0.22122080,-0.21616365,-0.16551687,0.2
 8873978,0.24079446,-0.00119642,-0.00121354,-0.00357245,-0.00375941,0.0
 0208092,0.00361210,0.00031658,0.00021384,-0.00101611,0.00110958,-0.002
 39998,-0.00097191,-0.04421014,-0.02000294,-0.02165491,0.00530692,0.005
 33993,-0.00635137,0.00068932,-0.00047694,0.00010931,-0.00023270,0.0002
 1010,0.00051738,-0.00026719,0.00047324,0.00018155,-0.00016867,0.000668
 20,-0.00031526,-0.00044864,-0.00005854,-0.00007429,0.00002160,-0.00008
 770,0.00021733,-0.00011709,-0.00013422,0.00040868,0.00001478,-0.000200
 79,0.00036845,-0.00038209,0.00011834,0.00002153,-0.00161801,-0.0016064
 2,0.00022921,0.00165654,-0.00054060,0.00123093,0.00032713,0.00523096,-
 0.00219128,0.00088361,-0.00035765,0.00106049,-0.00116720,-0.01082291,0
 .03086824,-0.27739444,-0.15976115,-0.31200636,0.32063592,0.18332784,0.
 30932875\\0.00000088,0.00000500,0.00000121,0.00000145,0.00000793,-0.00
 000228,0.00000375,-0.00000238,0.00000741,0.00001025,-0.00000181,0.0000
 0712,0.00000096,0.00000040,0.00000200,-0.00000471,-0.00000002,-0.00000
 471,0.00000264,0.00001162,0.00000162,0.00000500,-0.00000537,0.00000694
 ,0.00000773,0.00000532,0.00000820,0.00000981,-0.00000459,0.00001199,-0
 .00000309,0.00000261,-0.00000321,-0.00000619,0.00000304,-0.00000678,-0
 .00000008,0.00000603,-0.00000152,-0.00000168,-0.00000339,-0.00000142,-
 0.00000349,0.00001253,-0.00000601,-0.00000376,0.00000667,-0.00000528,0
 .00000386,-0.00000240,0.00000399,-0.00000682,-0.00000291,-0.00000705,-
 0.00001110,-0.00000128,-0.00001208,-0.00000566,-0.00000972,-0.00000498
 ,-0.00000028,-0.00001111,0.00000143,0.00000052,-0.00001617,0.00000341\
 \\@


 FROM AN ANONYMOUS WRITER, ON PERSPECTIVE:

 MAN, DESPITE HIS ARTISTIC PRETENSIONS, HIS SOPHISTICATION AND MANY 
 ACCOMPLISHMENTS, OWES THE FACT OF HIS EXISTENCE TO A SIX-INCH LAYER OF 
 TOPSOIL AND THE FACT THAT IT RAINS.
 Job cpu time:       0 days  1 hours 10 minutes 36.9 seconds.
 File lengths (MBytes):  RWF=    177 Int=      0 D2E=      0 Chk=     11 Scr=      1
 Normal termination of Gaussian 09 at Wed Jun 29 00:43:39 2016.
