 Entering Gaussian System, Link 0=g09
 Input=endo-b972-dz-smd.gjf
 Output=endo-b972-dz-smd.out
 Initial command:
 /n/sw/g09_D.01/g09/l1.exe "/scratch/ekwan_endo-b972-dz-smd/Gau-29315.inp" -scrdir="/scratch/ekwan_endo-b972-dz-smd/"
 Entering Link 1 = /n/sw/g09_D.01/g09/l1.exe PID=     29316.
  
 Copyright (c) 1988,1990,1992,1993,1995,1998,2003,2009,2013,
            Gaussian, Inc.  All Rights Reserved.
  
 This is part of the Gaussian(R) 09 program.  It is based on
 the Gaussian(R) 03 system (copyright 2003, Gaussian, Inc.),
 the Gaussian(R) 98 system (copyright 1998, Gaussian, Inc.),
 the Gaussian(R) 94 system (copyright 1995, Gaussian, Inc.),
 the Gaussian 92(TM) system (copyright 1992, Gaussian, Inc.),
 the Gaussian 90(TM) system (copyright 1990, Gaussian, Inc.),
 the Gaussian 88(TM) system (copyright 1988, Gaussian, Inc.),
 the Gaussian 86(TM) system (copyright 1986, Carnegie Mellon
 University), and the Gaussian 82(TM) system (copyright 1983,
 Carnegie Mellon University). Gaussian is a federally registered
 trademark of Gaussian, Inc.
  
 This software contains proprietary and confidential information,
 including trade secrets, belonging to Gaussian, Inc.
  
 This software is provided under written license and may be
 used, copied, transmitted, or stored only in accord with that
 written license.
  
 The following legend is applicable only to US Government
 contracts under FAR:
  
                    RESTRICTED RIGHTS LEGEND
  
 Use, reproduction and disclosure by the US Government is
 subject to restrictions as set forth in subparagraphs (a)
 and (c) of the Commercial Computer Software - Restricted
 Rights clause in FAR 52.227-19.
  
 Gaussian, Inc.
 340 Quinnipiac St., Bldg. 40, Wallingford CT 06492
  
  
 ---------------------------------------------------------------
 Warning -- This program may not be used in any manner that
 competes with the business of Gaussian, Inc. or will provide
 assistance to any competitor of Gaussian, Inc.  The licensee
 of this program is prohibited from giving any competitor of
 Gaussian, Inc. access to this program.  By using this program,
 the user acknowledges that Gaussian, Inc. is engaged in the
 business of creating and licensing software in the field of
 computational chemistry and represents and warrants to the
 licensee that it is not a competitor of Gaussian, Inc. and that
 it will not use this program in any manner prohibited above.
 ---------------------------------------------------------------
  

 Cite this work as:
 Gaussian 09, Revision D.01,
 M. J. Frisch, G. W. Trucks, H. B. Schlegel, G. E. Scuseria, 
 M. A. Robb, J. R. Cheeseman, G. Scalmani, V. Barone, B. Mennucci, 
 G. A. Petersson, H. Nakatsuji, M. Caricato, X. Li, H. P. Hratchian, 
 A. F. Izmaylov, J. Bloino, G. Zheng, J. L. Sonnenberg, M. Hada, 
 M. Ehara, K. Toyota, R. Fukuda, J. Hasegawa, M. Ishida, T. Nakajima, 
 Y. Honda, O. Kitao, H. Nakai, T. Vreven, J. A. Montgomery, Jr., 
 J. E. Peralta, F. Ogliaro, M. Bearpark, J. J. Heyd, E. Brothers, 
 K. N. Kudin, V. N. Staroverov, T. Keith, R. Kobayashi, J. Normand, 
 K. Raghavachari, A. Rendell, J. C. Burant, S. S. Iyengar, J. Tomasi, 
 M. Cossi, N. Rega, J. M. Millam, M. Klene, J. E. Knox, J. B. Cross, 
 V. Bakken, C. Adamo, J. Jaramillo, R. Gomperts, R. E. Stratmann, 
 O. Yazyev, A. J. Austin, R. Cammi, C. Pomelli, J. W. Ochterski, 
 R. L. Martin, K. Morokuma, V. G. Zakrzewski, G. A. Voth, 
 P. Salvador, J. J. Dannenberg, S. Dapprich, A. D. Daniels, 
 O. Farkas, J. B. Foresman, J. V. Ortiz, J. Cioslowski, 
 and D. J. Fox, Gaussian, Inc., Wallingford CT, 2013.
 
 ******************************************
 Gaussian 09:  EM64L-G09RevD.01 24-Apr-2013
                28-Jun-2016 
 ******************************************
 %chk=checkpoint.chk
 %nprocshared=4
 Will use up to    4 processors via shared memory.
 %mem=2GB
 ----------------------------------------------------------------------
 #p opt=(modredundant,maxcycles=200) pop=none b972 cc-pVDZ scrf=(solven
 t=o-xylene,smd)
 ----------------------------------------------------------------------
 1/6=200,14=-1,18=120,19=15,26=3,38=1/1,3;
 2/9=110,12=2,17=6,18=5,40=1/2;
 3/5=16,11=2,16=1,25=1,30=1,70=32201,71=1,72=158,74=-21/1,2,3;
 4//1;
 5/5=2,38=5,53=158/2;
 7//1,2,3,16;
 1/6=200,14=-1,18=20,19=15,26=3/3(2);
 2/9=110/2;
 99//99;
 2/9=110/2;
 3/5=16,11=2,16=1,25=1,30=1,70=32205,71=1,72=158,74=-21/1,2,3;
 4/5=5,16=3,69=1/1;
 5/5=2,38=5,53=158/2;
 7//1,2,3,16;
 1/6=200,14=-1,18=20,19=15,26=3/3(-5);
 2/9=110/2;
 99/9=1/99;
 Leave Link    1 at Tue Jun 28 22:16:26 2016, MaxMem=   268435456 cpu:         0.4
 (Enter /n/sw/g09_D.01/g09/l101.exe)
 -----
 title
 -----
 Symbolic Z-matrix:
 Charge =  0 Multiplicity = 1
 6                     1.73352  -0.64888  -0.12666 
 6                     1.6999   -0.11377   1.15809 
 6                     0.84812  -1.69905  -0.46099 
 6                    -0.0629   -2.23433   0.42825 
 6                    -1.29305  -0.34501   1.02792 
 6                    -0.37847   0.66129   1.32764 
 1                     1.46113  -0.73836   2.01157 
 1                     0.73976  -1.945    -1.51565 
 1                     0.1375   -2.26558   1.49318 
 1                    -0.82199  -2.92713   0.07762 
 6                     2.52213   0.05097  -1.21109 
 1                     2.31998   1.12855  -1.20669 
 1                     3.60057  -0.07892  -1.05706 
 1                     2.27497  -0.33671  -2.20366 
 1                     2.2862    0.77242   1.387 
 1                    -0.15127   1.04654   2.31299 
 1                    -1.86546  -0.93378   1.73163 
 6                    -0.30954   1.55905   0.14579 
 8                     0.28621   2.59108  -0.01705 
 8                    -1.08155   0.98693  -0.86125 
 6                    -1.80573  -0.09806  -0.33321 
 8                    -2.66782  -0.64243  -0.96737 
 
 Add virtual bond connecting atoms C5         and C4         Dist= 4.41D+00.
 Add virtual bond connecting atoms C6         and C2         Dist= 4.20D+00.
 The following ModRedundant input section has been read:
 B       2       6 F                                                           
 B       4       5 F                                                           
 
 NAtoms=     22 NQM=       22 NQMF=       0 NMMI=      0 NMMIF=      0
                NMic=       0 NMicF=      0.
                    Isotopes and Nuclear Properties:
 (Nuclear quadrupole moments (NQMom) in fm**2, nuclear magnetic moments (NMagM)
  in nuclear magnetons)

  Atom         1           2           3           4           5           6           7           8           9          10
 IAtWgt=          12          12          12          12          12          12           1           1           1           1
 AtmWgt=  12.0000000  12.0000000  12.0000000  12.0000000  12.0000000  12.0000000   1.0078250   1.0078250   1.0078250   1.0078250
 NucSpn=           0           0           0           0           0           0           1           1           1           1
 AtZEff=   0.0000000   0.0000000   0.0000000   0.0000000   0.0000000   0.0000000   0.0000000   0.0000000   0.0000000   0.0000000
 NQMom=    0.0000000   0.0000000   0.0000000   0.0000000   0.0000000   0.0000000   0.0000000   0.0000000   0.0000000   0.0000000
 NMagM=    0.0000000   0.0000000   0.0000000   0.0000000   0.0000000   0.0000000   2.7928460   2.7928460   2.7928460   2.7928460
 AtZNuc=   6.0000000   6.0000000   6.0000000   6.0000000   6.0000000   6.0000000   1.0000000   1.0000000   1.0000000   1.0000000

  Atom        11          12          13          14          15          16          17          18          19          20
 IAtWgt=          12           1           1           1           1           1           1          12          16          16
 AtmWgt=  12.0000000   1.0078250   1.0078250   1.0078250   1.0078250   1.0078250   1.0078250  12.0000000  15.9949146  15.9949146
 NucSpn=           0           1           1           1           1           1           1           0           0           0
 AtZEff=   0.0000000   0.0000000   0.0000000   0.0000000   0.0000000   0.0000000   0.0000000   0.0000000   0.0000000   0.0000000
 NQMom=    0.0000000   0.0000000   0.0000000   0.0000000   0.0000000   0.0000000   0.0000000   0.0000000   0.0000000   0.0000000
 NMagM=    0.0000000   2.7928460   2.7928460   2.7928460   2.7928460   2.7928460   2.7928460   0.0000000   0.0000000   0.0000000
 AtZNuc=   6.0000000   1.0000000   1.0000000   1.0000000   1.0000000   1.0000000   1.0000000   6.0000000   8.0000000   8.0000000

  Atom        21          22
 IAtWgt=          12          16
 AtmWgt=  12.0000000  15.9949146
 NucSpn=           0           0
 AtZEff=   0.0000000   0.0000000
 NQMom=    0.0000000   0.0000000
 NMagM=    0.0000000   0.0000000
 AtZNuc=   6.0000000   8.0000000
 Leave Link  101 at Tue Jun 28 22:16:26 2016, MaxMem=   268435456 cpu:         0.7
 (Enter /n/sw/g09_D.01/g09/l103.exe)

 GradGradGradGradGradGradGradGradGradGradGradGradGradGradGradGradGradGrad
 Berny optimization.
 Initialization pass.
                           ----------------------------
                           !    Initial Parameters    !
                           ! (Angstroms and Degrees)  !
 --------------------------                            --------------------------
 ! Name  Definition              Value          Derivative Info.                !
 --------------------------------------------------------------------------------
 ! R1    R(1,2)                  1.3921         estimate D2E/DX2                !
 ! R2    R(1,3)                  1.4137         estimate D2E/DX2                !
 ! R3    R(1,11)                 1.5125         estimate D2E/DX2                !
 ! R4    R(2,6)                  2.2247         Frozen                          !
 ! R5    R(2,7)                  1.0842         estimate D2E/DX2                !
 ! R6    R(2,15)                 1.087          estimate D2E/DX2                !
 ! R7    R(3,4)                  1.381          estimate D2E/DX2                !
 ! R8    R(3,8)                  1.0884         estimate D2E/DX2                !
 ! R9    R(4,5)                  2.3329         Frozen                          !
 ! R10   R(4,9)                  1.0841         estimate D2E/DX2                !
 ! R11   R(4,10)                 1.0859         estimate D2E/DX2                !
 ! R12   R(5,6)                  1.3925         estimate D2E/DX2                !
 ! R13   R(5,17)                 1.0814         estimate D2E/DX2                !
 ! R14   R(5,21)                 1.4753         estimate D2E/DX2                !
 ! R15   R(6,16)                 1.0821         estimate D2E/DX2                !
 ! R16   R(6,18)                 1.4858         estimate D2E/DX2                !
 ! R17   R(11,12)                1.0964         estimate D2E/DX2                !
 ! R18   R(11,13)                1.0971         estimate D2E/DX2                !
 ! R19   R(11,14)                1.0939         estimate D2E/DX2                !
 ! R20   R(18,19)                1.2027         estimate D2E/DX2                !
 ! R21   R(18,20)                1.3919         estimate D2E/DX2                !
 ! R22   R(20,21)                1.4073         estimate D2E/DX2                !
 ! R23   R(21,22)                1.2007         estimate D2E/DX2                !
 ! A1    A(2,1,3)              119.2527         estimate D2E/DX2                !
 ! A2    A(2,1,11)             119.7623         estimate D2E/DX2                !
 ! A3    A(3,1,11)             120.0469         estimate D2E/DX2                !
 ! A4    A(1,2,6)              103.1094         estimate D2E/DX2                !
 ! A5    A(1,2,7)              120.6867         estimate D2E/DX2                !
 ! A6    A(1,2,15)             119.6504         estimate D2E/DX2                !
 ! A7    A(6,2,7)               86.271          estimate D2E/DX2                !
 ! A8    A(6,2,15)             101.7614         estimate D2E/DX2                !
 ! A9    A(7,2,15)             115.0035         estimate D2E/DX2                !
 ! A10   A(1,3,4)              123.2844         estimate D2E/DX2                !
 ! A11   A(1,3,8)              117.3479         estimate D2E/DX2                !
 ! A12   A(4,3,8)              118.0791         estimate D2E/DX2                !
 ! A13   A(3,4,5)              101.5057         estimate D2E/DX2                !
 ! A14   A(3,4,9)              121.4501         estimate D2E/DX2                !
 ! A15   A(3,4,10)             120.0345         estimate D2E/DX2                !
 ! A16   A(5,4,9)               82.4329         estimate D2E/DX2                !
 ! A17   A(5,4,10)             103.3606         estimate D2E/DX2                !
 ! A18   A(9,4,10)             115.3429         estimate D2E/DX2                !
 ! A19   A(4,5,6)              107.1129         estimate D2E/DX2                !
 ! A20   A(4,5,17)              90.3128         estimate D2E/DX2                !
 ! A21   A(4,5,21)              94.6834         estimate D2E/DX2                !
 ! A22   A(6,5,17)             126.9444         estimate D2E/DX2                !
 ! A23   A(6,5,21)             107.8104         estimate D2E/DX2                !
 ! A24   A(17,5,21)            120.5011         estimate D2E/DX2                !
 ! A25   A(2,6,5)              110.2088         estimate D2E/DX2                !
 ! A26   A(2,6,16)              89.844          estimate D2E/DX2                !
 ! A27   A(2,6,18)              96.1162         estimate D2E/DX2                !
 ! A28   A(5,6,16)             126.2418         estimate D2E/DX2                !
 ! A29   A(5,6,18)             107.2132         estimate D2E/DX2                !
 ! A30   A(16,6,18)            119.9644         estimate D2E/DX2                !
 ! A31   A(1,11,12)            110.8401         estimate D2E/DX2                !
 ! A32   A(1,11,13)            110.921          estimate D2E/DX2                !
 ! A33   A(1,11,14)            111.6402         estimate D2E/DX2                !
 ! A34   A(12,11,13)           107.28           estimate D2E/DX2                !
 ! A35   A(12,11,14)           108.0779         estimate D2E/DX2                !
 ! A36   A(13,11,14)           107.911          estimate D2E/DX2                !
 ! A37   A(6,18,19)            130.4792         estimate D2E/DX2                !
 ! A38   A(6,18,20)            107.5421         estimate D2E/DX2                !
 ! A39   A(19,18,20)           121.9697         estimate D2E/DX2                !
 ! A40   A(18,20,21)           109.3197         estimate D2E/DX2                !
 ! A41   A(5,21,20)            107.2421         estimate D2E/DX2                !
 ! A42   A(5,21,22)            131.3683         estimate D2E/DX2                !
 ! A43   A(20,21,22)           121.3888         estimate D2E/DX2                !
 ! D1    D(3,1,2,6)            -60.4471         estimate D2E/DX2                !
 ! D2    D(3,1,2,7)             33.0243         estimate D2E/DX2                !
 ! D3    D(3,1,2,15)          -172.3718         estimate D2E/DX2                !
 ! D4    D(11,1,2,6)           108.4777         estimate D2E/DX2                !
 ! D5    D(11,1,2,7)          -158.051          estimate D2E/DX2                !
 ! D6    D(11,1,2,15)           -3.4471         estimate D2E/DX2                !
 ! D7    D(2,1,3,4)             -0.041          estimate D2E/DX2                !
 ! D8    D(2,1,3,8)            166.724          estimate D2E/DX2                !
 ! D9    D(11,1,3,4)          -168.9336         estimate D2E/DX2                !
 ! D10   D(11,1,3,8)            -2.1687         estimate D2E/DX2                !
 ! D11   D(2,1,11,12)          -46.1013         estimate D2E/DX2                !
 ! D12   D(2,1,11,13)           72.9628         estimate D2E/DX2                !
 ! D13   D(2,1,11,14)         -166.6476         estimate D2E/DX2                !
 ! D14   D(3,1,11,12)          122.7345         estimate D2E/DX2                !
 ! D15   D(3,1,11,13)         -118.2013         estimate D2E/DX2                !
 ! D16   D(3,1,11,14)            2.1883         estimate D2E/DX2                !
 ! D17   D(1,2,6,5)             53.8691         estimate D2E/DX2                !
 ! D18   D(1,2,6,16)          -177.1563         estimate D2E/DX2                !
 ! D19   D(1,2,6,18)           -57.0218         estimate D2E/DX2                !
 ! D20   D(7,2,6,5)            -66.7903         estimate D2E/DX2                !
 ! D21   D(7,2,6,16)            62.1843         estimate D2E/DX2                !
 ! D22   D(7,2,6,18)          -177.6812         estimate D2E/DX2                !
 ! D23   D(15,2,6,5)           178.433          estimate D2E/DX2                !
 ! D24   D(15,2,6,16)          -52.5925         estimate D2E/DX2                !
 ! D25   D(15,2,6,18)           67.542          estimate D2E/DX2                !
 ! D26   D(1,3,4,5)             57.377          estimate D2E/DX2                !
 ! D27   D(1,3,4,9)            -30.7299         estimate D2E/DX2                !
 ! D28   D(1,3,4,10)           170.3365         estimate D2E/DX2                !
 ! D29   D(8,3,4,5)           -109.2973         estimate D2E/DX2                !
 ! D30   D(8,3,4,9)            162.5958         estimate D2E/DX2                !
 ! D31   D(8,3,4,10)             3.6622         estimate D2E/DX2                !
 ! D32   D(3,4,5,6)            -47.4353         estimate D2E/DX2                !
 ! D33   D(3,4,5,17)          -176.5277         estimate D2E/DX2                !
 ! D34   D(3,4,5,21)            62.8278         estimate D2E/DX2                !
 ! D35   D(9,4,5,6)             73.2347         estimate D2E/DX2                !
 ! D36   D(9,4,5,17)           -55.8577         estimate D2E/DX2                !
 ! D37   D(9,4,5,21)          -176.5022         estimate D2E/DX2                !
 ! D38   D(10,4,5,6)          -172.4188         estimate D2E/DX2                !
 ! D39   D(10,4,5,17)           58.4888         estimate D2E/DX2                !
 ! D40   D(10,4,5,21)          -62.1557         estimate D2E/DX2                !
 ! D41   D(4,5,6,2)             -2.5224         estimate D2E/DX2                !
 ! D42   D(4,5,6,16)          -107.9622         estimate D2E/DX2                !
 ! D43   D(4,5,6,18)           100.9453         estimate D2E/DX2                !
 ! D44   D(17,5,6,2)           101.2868         estimate D2E/DX2                !
 ! D45   D(17,5,6,16)           -4.1531         estimate D2E/DX2                !
 ! D46   D(17,5,6,18)         -155.2455         estimate D2E/DX2                !
 ! D47   D(21,5,6,2)          -103.3962         estimate D2E/DX2                !
 ! D48   D(21,5,6,16)          151.164          estimate D2E/DX2                !
 ! D49   D(21,5,6,18)            0.0715         estimate D2E/DX2                !
 ! D50   D(4,5,21,20)         -104.1306         estimate D2E/DX2                !
 ! D51   D(4,5,21,22)           76.2092         estimate D2E/DX2                !
 ! D52   D(6,5,21,20)            5.5285         estimate D2E/DX2                !
 ! D53   D(6,5,21,22)         -174.1318         estimate D2E/DX2                !
 ! D54   D(17,5,21,20)         162.7385         estimate D2E/DX2                !
 ! D55   D(17,5,21,22)         -16.9217         estimate D2E/DX2                !
 ! D56   D(2,6,18,19)          -71.235          estimate D2E/DX2                !
 ! D57   D(2,6,18,20)          107.6663         estimate D2E/DX2                !
 ! D58   D(5,6,18,19)          175.38           estimate D2E/DX2                !
 ! D59   D(5,6,18,20)           -5.7187         estimate D2E/DX2                !
 ! D60   D(16,6,18,19)          22.1254         estimate D2E/DX2                !
 ! D61   D(16,6,18,20)        -158.9732         estimate D2E/DX2                !
 ! D62   D(6,18,20,21)           9.3237         estimate D2E/DX2                !
 ! D63   D(19,18,20,21)       -171.6614         estimate D2E/DX2                !
 ! D64   D(18,20,21,5)          -9.2718         estimate D2E/DX2                !
 ! D65   D(18,20,21,22)        170.4296         estimate D2E/DX2                !
 --------------------------------------------------------------------------------
 Trust Radius=3.00D-01 FncErr=1.00D-07 GrdErr=1.00D-06
 Number of steps in this run=    132 maximum allowed number of steps=    132.
 GradGradGradGradGradGradGradGradGradGradGradGradGradGradGradGradGradGrad

 Leave Link  103 at Tue Jun 28 22:16:26 2016, MaxMem=   268435456 cpu:         0.0
 (Enter /n/sw/g09_D.01/g09/l202.exe)
                          Input orientation:                          
 ---------------------------------------------------------------------
 Center     Atomic      Atomic             Coordinates (Angstroms)
 Number     Number       Type             X           Y           Z
 ---------------------------------------------------------------------
      1          6           0        1.733517   -0.648876   -0.126660
      2          6           0        1.699899   -0.113766    1.158090
      3          6           0        0.848124   -1.699054   -0.460990
      4          6           0       -0.062898   -2.234331    0.428250
      5          6           0       -1.293052   -0.345007    1.027920
      6          6           0       -0.378469    0.661290    1.327640
      7          1           0        1.461127   -0.738355    2.011570
      8          1           0        0.739763   -1.945003   -1.515650
      9          1           0        0.137502   -2.265581    1.493180
     10          1           0       -0.821990   -2.927128    0.077620
     11          6           0        2.522129    0.050971   -1.211090
     12          1           0        2.319983    1.128552   -1.206690
     13          1           0        3.600569   -0.078922   -1.057060
     14          1           0        2.274968   -0.336708   -2.203660
     15          1           0        2.286202    0.772422    1.387000
     16          1           0       -0.151267    1.046540    2.312990
     17          1           0       -1.865464   -0.933775    1.731630
     18          6           0       -0.309536    1.559050    0.145790
     19          8           0        0.286207    2.591078   -0.017050
     20          8           0       -1.081548    0.986932   -0.861250
     21          6           0       -1.805731   -0.098055   -0.333210
     22          8           0       -2.667823   -0.642433   -0.967370
 ---------------------------------------------------------------------
                    Distance matrix (angstroms):
                    1          2          3          4          5
     1  C    0.000000
     2  C    1.392141   0.000000
     3  C    1.413708   2.420760   0.000000
     4  C    2.459410   2.852528   1.381025   0.000000
     5  C    3.253538   3.004692   2.938525   2.332901   0.000000
     6  C    2.879585   2.224651   3.205457   3.048460   1.392454
     7  H    2.157367   1.084229   2.722548   2.658477   2.950897
     8  H    2.144012   3.379967   1.088366   2.122904   3.627957
     9  H    2.790140   2.680238   2.155161   1.084072   2.439581
    10  H    3.429691   3.929675   2.141856   1.085877   2.791472
    11  C    1.512509   2.513208   2.535257   3.820001   4.441348
    12  H    2.160939   2.742270   3.273804   4.433975   4.496541
    13  H    2.162493   2.919015   3.249012   4.502546   5.325924
    14  H    2.168997   3.417861   2.632256   3.999193   4.813932
    15  H    2.148654   1.086959   3.404604   3.934214   3.766782
    16  H    3.518343   2.471218   4.028900   3.784728   2.211669
    17  H    4.060428   3.703131   3.571665   2.576721   1.081439
    18  C    3.020469   2.803729   3.510499   3.811870   2.317518
    19  O    3.550214   3.270422   4.349490   4.858471   3.493797
    20  O    3.337676   3.609116   3.331421   3.616213   2.321155
    21  C    3.587805   3.809680   3.102011   2.860238   1.475297
    22  O    4.480918   4.886109   3.706043   3.356714   2.441237
                    6          7          8          9         10
     6  C    0.000000
     7  H    2.410577   0.000000
     8  H    4.015906   3.797058   0.000000
     9  H    2.976609   2.086416   3.085214   0.000000
    10  H    3.825703   3.707224   2.437653   1.833597   0.000000
    11  C    3.902705   3.483432   2.693232   4.285550   4.659719
    12  H    3.731328   3.818399   3.469768   4.855168   5.288666
    13  H    4.697601   3.798494   3.446270   4.824732   5.381339
    14  H    4.528444   4.311823   2.327407   4.685716   4.637420
    15  H    2.667648   1.831197   4.266292   3.722586   5.006197
    16  H    1.082106   2.424153   4.939813   3.424269   4.608339
    17  H    2.217790   3.344064   4.284229   2.417114   2.792498
    18  C    1.485764   3.448833   4.017437   4.079596   4.515866
    19  O    2.444190   4.071960   4.798703   5.088226   5.629179
    20  O    2.321982   4.206531   3.513069   4.196220   4.033449
    21  C    2.317780   4.071896   3.359899   3.436572   3.023273
    22  O    3.493981   5.092299   3.689030   4.069246   3.117521
                   11         12         13         14         15
    11  C    0.000000
    12  H    1.096386   0.000000
    13  H    1.097101   1.766432   0.000000
    14  H    1.093882   1.772840   1.771543   0.000000
    15  H    2.706700   2.618243   2.902719   3.758076   0.000000
    16  H    4.534021   4.301389   5.167221   5.310378   2.621803
    17  H    5.374039   5.514062   6.195570   5.743359   4.501801
    18  C    3.483354   2.988127   4.406668   3.974100   2.982824
    19  O    3.588485   2.773170   4.381269   4.160332   3.046120
    20  O    3.739639   3.421958   4.805893   3.849713   4.054921
    21  C    4.418513   4.391930   5.454576   4.495291   4.523358
    22  O    5.241737   5.298289   6.294309   5.104220   5.664560
                   16         17         18         19         20
    16  H    0.000000
    17  H    2.682927   0.000000
    18  C    2.232593   3.339158   0.000000
    19  O    2.829500   4.484658   1.202709   0.000000
    20  O    3.308289   3.320642   1.391924   2.270839   0.000000
    21  C    3.324112   2.228354   2.283427   3.421637   1.407290
    22  O    4.466144   2.830770   3.412795   4.481629   2.276480
                   21         22
    21  C    0.000000
    22  O    1.200712   0.000000
 Stoichiometry    C9H10O3
 Framework group  C1[X(C9H10O3)]
 Deg. of freedom    60
 Full point group                 C1      NOp   1
 Largest Abelian subgroup         C1      NOp   1
 Largest concise Abelian subgroup C1      NOp   1
                         Standard orientation:                         
 ---------------------------------------------------------------------
 Center     Atomic      Atomic             Coordinates (Angstroms)
 Number     Number       Type             X           Y           Z
 ---------------------------------------------------------------------
      1          6           0        1.733517   -0.648876   -0.126660
      2          6           0        1.699899   -0.113766    1.158090
      3          6           0        0.848124   -1.699054   -0.460990
      4          6           0       -0.062898   -2.234331    0.428250
      5          6           0       -1.293052   -0.345007    1.027920
      6          6           0       -0.378469    0.661290    1.327640
      7          1           0        1.461127   -0.738355    2.011570
      8          1           0        0.739763   -1.945003   -1.515650
      9          1           0        0.137502   -2.265581    1.493180
     10          1           0       -0.821990   -2.927128    0.077620
     11          6           0        2.522129    0.050971   -1.211090
     12          1           0        2.319983    1.128552   -1.206690
     13          1           0        3.600569   -0.078922   -1.057060
     14          1           0        2.274968   -0.336708   -2.203660
     15          1           0        2.286202    0.772422    1.387000
     16          1           0       -0.151267    1.046540    2.312990
     17          1           0       -1.865464   -0.933775    1.731630
     18          6           0       -0.309536    1.559050    0.145790
     19          8           0        0.286208    2.591078   -0.017050
     20          8           0       -1.081548    0.986932   -0.861250
     21          6           0       -1.805731   -0.098055   -0.333210
     22          8           0       -2.667823   -0.642433   -0.967370
 ---------------------------------------------------------------------
 Rotational constants (GHZ):      1.2206308      0.9823245      0.7491505
 Leave Link  202 at Tue Jun 28 22:16:26 2016, MaxMem=   268435456 cpu:         0.0
 (Enter /n/sw/g09_D.01/g09/l301.exe)
 Standard basis: CC-pVDZ (5D, 7F)
 Ernie: Thresh=  0.10000D-02 Tol=  0.10000D-05 Strict=F.
 Ernie:  24 primitive shells out of 314 were deleted.
 There are   230 symmetry adapted cartesian basis functions of A   symmetry.
 There are   218 symmetry adapted basis functions of A   symmetry.
   218 basis functions,   466 primitive gaussians,   230 cartesian basis functions
    44 alpha electrons       44 beta electrons
       nuclear repulsion energy       715.4424692541 Hartrees.
 IExCor= 1715 DFT=T Ex+Corr=B972 ExCW=0 ScaHFX=  0.210000
 ScaDFX=  1.000000  1.000000  1.000000  1.000000 ScalE2=  1.000000  1.000000
 IRadAn=      0 IRanWt=     -1 IRanGd=            0 ICorTp=0 IEmpDi=  4
 NAtoms=   22 NActive=   22 NUniq=   22 SFac= 1.00D+00 NAtFMM=   60 NAOKFM=F Big=F
 Integral buffers will be    131072 words long.
 Raffenetti 2 integral format.
 Two-electron integral symmetry is turned on.
 ------------------------------------------------------------------------------
 Polarizable Continuum Model (PCM)
 =================================
 Model                : PCM (using non-symmetric T matrix).
 Atomic radii         : SMD-Coulomb.
 Polarization charges : Total charges.
 Charge compensation  : None.
 Solution method      : On-the-fly selection.
 Cavity type          : VdW (van der Waals Surface) (Alpha=1.000).
 Cavity algorithm     : GePol (No added spheres)
                        Default sphere list used, NSphG=   22.
                        Lebedev-Laikov grids with approx.  5.0 points / Ang**2.
                        Smoothing algorithm: Karplus/York (Gamma=1.0000).
                        Polarization charges: spherical gaussians, with
                                              point-specific exponents (IZeta= 3).
                        Self-potential: point-specific (ISelfS= 7).
                        Self-field    : sphere-specific E.n sum rule (ISelfD= 2).
 1st derivatives      : Analytical E(r).r(x)/FMM algorithm (CHGder, D1EAlg=3).
                        Cavity 1st derivative terms included.
 Solvent              : o-Xylene, Eps=   2.545400 Eps(inf)=   2.266530
 ------------------------------------------------------------------------------
 GePol: Number of generator spheres                  =      22
 GePol: Total number of spheres                      =      22
 GePol: Number of exposed spheres                    =      22 (100.00%)
 GePol: Number of points                             =    1760
 GePol: Average weight of points                     =       0.12
 GePol: Minimum weight of points                     =   0.14D-09
 GePol: Maximum weight of points                     =    0.17992
 GePol: Number of points with low weight             =      78
 GePol: Fraction of low-weight points (<1% of avg)   =       4.43%
 GePol: Cavity surface area                          =    215.857 Ang**2
 GePol: Cavity volume                                =    220.916 Ang**3
 ------------------------------------------------------------------------------
 Atomic radii for non-electrostatic terms: SMD-CDS.
 ------------------------------------------------------------------------------
 PCM non-electrostatic energy =        -0.0059680754 Hartrees.
 Nuclear repulsion after PCM non-electrostatic terms =      715.4365011787 Hartrees.
 Leave Link  301 at Tue Jun 28 22:16:26 2016, MaxMem=   268435456 cpu:         0.3
 (Enter /n/sw/g09_D.01/g09/l302.exe)
 NPDir=0 NMtPBC=     1 NCelOv=     1 NCel=       1 NClECP=     1 NCelD=      1
         NCelK=      1 NCelE2=     1 NClLst=     1 CellRange=     0.0.
 One-electron integrals computed using PRISM.
 NBasis=   218 RedAO= T EigKep=  9.01D-04  NBF=   218
 NBsUse=   218 1.00D-06 EigRej= -1.00D+00 NBFU=   218
 Precomputing XC quadrature grid using
 IXCGrd= 4 IRadAn=           0 IRanWt=          -1 IRanGd=           0 AccXCQ= 0.00D+00.
 Generated NRdTot=       0 NPtTot=           0 NUsed=           0 NTot=          32
 NSgBfM=   230   230   230   230   230 MxSgAt=    22 MxSgA2=    22.
 Leave Link  302 at Tue Jun 28 22:16:27 2016, MaxMem=   268435456 cpu:         1.6
 (Enter /n/sw/g09_D.01/g09/l303.exe)
 DipDrv:  MaxL=1.
 Leave Link  303 at Tue Jun 28 22:16:27 2016, MaxMem=   268435456 cpu:         0.3
 (Enter /n/sw/g09_D.01/g09/l401.exe)
 ExpMin= 1.22D-01 ExpMax= 1.17D+04 ExpMxC= 4.01D+02 IAcc=1 IRadAn=         1 AccDes= 0.00D+00
 Harris functional with IExCor= 1715 and IRadAn=       1 diagonalized for initial guess.
 HarFok:  IExCor= 1715 AccDes= 0.00D+00 IRadAn=         1 IDoV= 1 UseB2=F ITyADJ=14
 ICtDFT=  3500011 ScaDFX=  1.000000  1.000000  1.000000  1.000000
 FoFCou: FMM=F IPFlag=           0 FMFlag=      100000 FMFlg1=           0
         NFxFlg=           0 DoJE=T BraDBF=F KetDBF=T FulRan=T
         wScrn=  0.000000 ICntrl=     500 IOpCl=  0 I1Cent=   200000004 NGrid=           0
         NMat0=    1 NMatS0=      1 NMatT0=    0 NMatD0=    1 NMtDS0=    0 NMtDT0=    0
 Petite list used in FoFCou.
 Harris En= -558.867516626759    
 JPrj=0 DoOrth=F DoCkMO=F.
 Leave Link  401 at Tue Jun 28 22:16:28 2016, MaxMem=   268435456 cpu:         3.8
 (Enter /n/sw/g09_D.01/g09/l502.exe)
 Closed shell SCF:
 Using DIIS extrapolation, IDIIS=  1040.
 Integral symmetry usage will be decided dynamically.
 IVT=      180374 IEndB=      180374 NGot=   268435456 MDV=   268324853
 LenX=   268324853 LenY=   268271512
 Requested convergence on RMS density matrix=1.00D-08 within 128 cycles.
 Requested convergence on MAX density matrix=1.00D-06.
 Requested convergence on             energy=1.00D-06.
 No special actions if energy rises.
 Fock matrices will be formed incrementally for  20 cycles.

 Cycle   1  Pass 1  IDiag  1:
 FoFJK:  IHMeth= 1 ICntrl=       0 DoSepK=F KAlg= 0 I1Cent=   0 FoldK=F
 IRaf= 960000000 NMat=   1 IRICut=       1 DoRegI=T DoRafI=F ISym2E= 0.
 FoFCou: FMM=F IPFlag=           0 FMFlag=      100000 FMFlg1=           0
         NFxFlg=           0 DoJE=F BraDBF=F KetDBF=F FulRan=T
         wScrn=  0.000000 ICntrl=       0 IOpCl=  0 I1Cent=           0 NGrid=           0
         NMat0=    1 NMatS0=      1 NMatT0=    0 NMatD0=    1 NMtDS0=    0 NMtDT0=    0
 Symmetry not used in FoFCou.
 Inv3:  Mode=1 IEnd=     9292800.
 Iteration    1 A*A^-1 deviation from unit magnitude is 7.33D-15 for    171.
 Iteration    1 A*A^-1 deviation from orthogonality  is 4.54D-15 for    990    248.
 Iteration    1 A^-1*A deviation from unit magnitude is 5.55D-15 for    190.
 Iteration    1 A^-1*A deviation from orthogonality  is 9.09D-15 for   1350   1343.
 E= -574.328444584518    
 DIIS: error= 2.40D-02 at cycle   1 NSaved=   1.
 NSaved= 1 IEnMin= 1 EnMin= -574.328444584518     IErMin= 1 ErrMin= 2.40D-02
 ErrMax= 2.40D-02  0.00D+00 EMaxC= 1.00D-01 BMatC= 2.08D-01 BMatP= 2.08D-01
 IDIUse=3 WtCom= 7.60D-01 WtEn= 2.40D-01
 Coeff-Com:  0.100D+01
 Coeff-En:   0.100D+01
 Coeff:      0.100D+01
 Gap=     0.260 Goal=   None    Shift=    0.000
 GapD=    0.260 DampG=1.000 DampE=0.500 DampFc=0.5000 IDamp=-1.
 Damping current iteration by 5.00D-01
 RMSDP=3.04D-03 MaxDP=9.94D-02              OVMax= 1.77D-01

 Cycle   2  Pass 1  IDiag  1:
 RMSU=  1.52D-03    CP:  9.97D-01
 E= -574.362176398587     Delta-E=       -0.033731814069 Rises=F Damp=T
 DIIS: error= 1.49D-02 at cycle   2 NSaved=   2.
 NSaved= 2 IEnMin= 2 EnMin= -574.362176398587     IErMin= 2 ErrMin= 1.49D-02
 ErrMax= 1.49D-02  0.00D+00 EMaxC= 1.00D-01 BMatC= 4.34D-02 BMatP= 2.08D-01
 IDIUse=3 WtCom= 8.51D-01 WtEn= 1.49D-01
 Coeff-Com:  0.748D-02 0.993D+00
 Coeff-En:   0.280D+00 0.720D+00
 Coeff:      0.480D-01 0.952D+00
 Gap=     0.189 Goal=   None    Shift=    0.000
 RMSDP=1.18D-03 MaxDP=4.25D-02 DE=-3.37D-02 OVMax= 1.63D-01

 Cycle   3  Pass 1  IDiag  1:
 RMSU=  1.09D-03    CP:  9.96D-01  6.96D-01
 E= -574.403337934615     Delta-E=       -0.041161536028 Rises=F Damp=F
 DIIS: error= 2.07D-02 at cycle   3 NSaved=   3.
 NSaved= 3 IEnMin= 3 EnMin= -574.403337934615     IErMin= 2 ErrMin= 1.49D-02
 ErrMax= 2.07D-02  0.00D+00 EMaxC= 1.00D-01 BMatC= 4.06D-02 BMatP= 4.34D-02
 IDIUse=3 WtCom= 7.93D-01 WtEn= 2.07D-01
 Coeff-Com: -0.198D+00 0.599D+00 0.599D+00
 Coeff-En:   0.000D+00 0.100D+00 0.900D+00
 Coeff:     -0.157D+00 0.496D+00 0.661D+00
 Gap=     0.187 Goal=   None    Shift=    0.000
 RMSDP=1.10D-03 MaxDP=3.99D-02 DE=-4.12D-02 OVMax= 8.43D-02

 Cycle   4  Pass 1  IDiag  1:
 RMSU=  7.32D-04    CP:  9.98D-01  1.04D+00  4.11D-01
 E= -574.421565225423     Delta-E=       -0.018227290808 Rises=F Damp=F
 DIIS: error= 1.08D-02 at cycle   4 NSaved=   4.
 NSaved= 4 IEnMin= 4 EnMin= -574.421565225423     IErMin= 4 ErrMin= 1.08D-02
 ErrMax= 1.08D-02  0.00D+00 EMaxC= 1.00D-01 BMatC= 1.77D-02 BMatP= 4.06D-02
 IDIUse=3 WtCom= 8.92D-01 WtEn= 1.08D-01
 Coeff-Com: -0.979D-01 0.203D+00 0.456D+00 0.439D+00
 Coeff-En:   0.000D+00 0.000D+00 0.339D+00 0.661D+00
 Coeff:     -0.874D-01 0.181D+00 0.443D+00 0.463D+00
 Gap=     0.186 Goal=   None    Shift=    0.000
 RMSDP=5.47D-04 MaxDP=1.91D-02 DE=-1.82D-02 OVMax= 3.18D-02

 Cycle   5  Pass 1  IDiag  1:
 RMSU=  1.36D-04    CP:  9.96D-01  9.91D-01  6.45D-01  3.76D-01
 E= -574.435137000718     Delta-E=       -0.013571775295 Rises=F Damp=F
 DIIS: error= 1.03D-03 at cycle   5 NSaved=   5.
 NSaved= 5 IEnMin= 5 EnMin= -574.435137000718     IErMin= 5 ErrMin= 1.03D-03
 ErrMax= 1.03D-03  0.00D+00 EMaxC= 1.00D-01 BMatC= 3.25D-04 BMatP= 1.77D-02
 IDIUse=3 WtCom= 9.90D-01 WtEn= 1.03D-02
 Coeff-Com: -0.435D-01 0.852D-01 0.233D+00 0.268D+00 0.457D+00
 Coeff-En:   0.000D+00 0.000D+00 0.000D+00 0.000D+00 0.100D+01
 Coeff:     -0.431D-01 0.843D-01 0.231D+00 0.266D+00 0.463D+00
 Gap=     0.181 Goal=   None    Shift=    0.000
 RMSDP=8.24D-05 MaxDP=2.98D-03 DE=-1.36D-02 OVMax= 4.02D-03

 Cycle   6  Pass 1  IDiag  1:
 RMSU=  3.44D-05    CP:  9.97D-01  9.86D-01  6.51D-01  4.50D-01  6.28D-01
 E= -574.435410766058     Delta-E=       -0.000273765340 Rises=F Damp=F
 DIIS: error= 1.98D-04 at cycle   6 NSaved=   6.
 NSaved= 6 IEnMin= 6 EnMin= -574.435410766058     IErMin= 6 ErrMin= 1.98D-04
 ErrMax= 1.98D-04  0.00D+00 EMaxC= 1.00D-01 BMatC= 1.01D-05 BMatP= 3.25D-04
 IDIUse=3 WtCom= 9.98D-01 WtEn= 1.98D-03
 Coeff-Com: -0.571D-02 0.970D-02 0.378D-01 0.531D-01 0.187D+00 0.718D+00
 Coeff-En:   0.000D+00 0.000D+00 0.000D+00 0.000D+00 0.000D+00 0.100D+01
 Coeff:     -0.570D-02 0.968D-02 0.378D-01 0.529D-01 0.187D+00 0.718D+00
 Gap=     0.181 Goal=   None    Shift=    0.000
 RMSDP=1.42D-05 MaxDP=5.79D-04 DE=-2.74D-04 OVMax= 8.41D-04

 Cycle   7  Pass 1  IDiag  1:
 RMSU=  1.12D-05    CP:  9.97D-01  9.85D-01  6.54D-01  4.55D-01  6.61D-01
                    CP:  8.33D-01
 E= -574.435418127486     Delta-E=       -0.000007361428 Rises=F Damp=F
 DIIS: error= 5.80D-05 at cycle   7 NSaved=   7.
 NSaved= 7 IEnMin= 7 EnMin= -574.435418127486     IErMin= 7 ErrMin= 5.80D-05
 ErrMax= 5.80D-05  0.00D+00 EMaxC= 1.00D-01 BMatC= 1.55D-06 BMatP= 1.01D-05
 IDIUse=1 WtCom= 1.00D+00 WtEn= 0.00D+00
 Coeff-Com:  0.579D-03-0.161D-02 0.147D-03 0.381D-02 0.529D-01 0.356D+00
 Coeff-Com:  0.588D+00
 Coeff:      0.579D-03-0.161D-02 0.147D-03 0.381D-02 0.529D-01 0.356D+00
 Coeff:      0.588D+00
 Gap=     0.181 Goal=   None    Shift=    0.000
 RMSDP=6.87D-06 MaxDP=1.70D-04 DE=-7.36D-06 OVMax= 5.59D-04

 Cycle   8  Pass 1  IDiag  1:
 RMSU=  5.01D-06    CP:  9.97D-01  9.85D-01  6.53D-01  4.53D-01  6.69D-01
                    CP:  8.81D-01  6.46D-01
 E= -574.435419442989     Delta-E=       -0.000001315503 Rises=F Damp=F
 DIIS: error= 2.22D-05 at cycle   8 NSaved=   8.
 NSaved= 8 IEnMin= 8 EnMin= -574.435419442989     IErMin= 8 ErrMin= 2.22D-05
 ErrMax= 2.22D-05  0.00D+00 EMaxC= 1.00D-01 BMatC= 2.38D-07 BMatP= 1.55D-06
 IDIUse=1 WtCom= 1.00D+00 WtEn= 0.00D+00
 Coeff-Com:  0.845D-03-0.172D-02-0.406D-02-0.431D-02 0.759D-02 0.116D+00
 Coeff-Com:  0.333D+00 0.552D+00
 Coeff:      0.845D-03-0.172D-02-0.406D-02-0.431D-02 0.759D-02 0.116D+00
 Coeff:      0.333D+00 0.552D+00
 Gap=     0.181 Goal=   None    Shift=    0.000
 RMSDP=2.73D-06 MaxDP=7.41D-05 DE=-1.32D-06 OVMax= 3.01D-04

 Cycle   9  Pass 1  IDiag  1:
 RMSU=  1.56D-06    CP:  9.97D-01  9.85D-01  6.53D-01  4.53D-01  6.74D-01
                    CP:  8.91D-01  7.27D-01  6.23D-01
 E= -574.435419713635     Delta-E=       -0.000000270647 Rises=F Damp=F
 DIIS: error= 7.32D-06 at cycle   9 NSaved=   9.
 NSaved= 9 IEnMin= 9 EnMin= -574.435419713635     IErMin= 9 ErrMin= 7.32D-06
 ErrMax= 7.32D-06  0.00D+00 EMaxC= 1.00D-01 BMatC= 1.66D-08 BMatP= 2.38D-07
 IDIUse=1 WtCom= 1.00D+00 WtEn= 0.00D+00
 Coeff-Com:  0.342D-03-0.682D-03-0.187D-02-0.233D-02 0.804D-03 0.360D-01
 Coeff-Com:  0.126D+00 0.289D+00 0.553D+00
 Coeff:      0.342D-03-0.682D-03-0.187D-02-0.233D-02 0.804D-03 0.360D-01
 Coeff:      0.126D+00 0.289D+00 0.553D+00
 Gap=     0.181 Goal=   None    Shift=    0.000
 RMSDP=7.00D-07 MaxDP=2.13D-05 DE=-2.71D-07 OVMax= 6.53D-05

 Cycle  10  Pass 1  IDiag  1:
 RMSU=  4.35D-07    CP:  9.97D-01  9.85D-01  6.54D-01  4.53D-01  6.74D-01
                    CP:  8.96D-01  7.32D-01  6.96D-01  7.88D-01
 E= -574.435419732116     Delta-E=       -0.000000018480 Rises=F Damp=F
 DIIS: error= 2.27D-06 at cycle  10 NSaved=  10.
 NSaved=10 IEnMin=10 EnMin= -574.435419732116     IErMin=10 ErrMin= 2.27D-06
 ErrMax= 2.27D-06  0.00D+00 EMaxC= 1.00D-01 BMatC= 1.36D-09 BMatP= 1.66D-08
 IDIUse=1 WtCom= 1.00D+00 WtEn= 0.00D+00
 Coeff-Com:  0.314D-04-0.523D-04-0.291D-03-0.560D-03-0.123D-02-0.455D-02
 Coeff-Com: -0.574D-03 0.425D-01 0.223D+00 0.742D+00
 Coeff:      0.314D-04-0.523D-04-0.291D-03-0.560D-03-0.123D-02-0.455D-02
 Coeff:     -0.574D-03 0.425D-01 0.223D+00 0.742D+00
 Gap=     0.181 Goal=   None    Shift=    0.000
 RMSDP=2.41D-07 MaxDP=5.66D-06 DE=-1.85D-08 OVMax= 2.65D-05

 Cycle  11  Pass 1  IDiag  1:
 RMSU=  1.54D-07    CP:  9.97D-01  9.85D-01  6.54D-01  4.53D-01  6.74D-01
                    CP:  8.97D-01  7.37D-01  7.05D-01  8.66D-01  8.89D-01
 E= -574.435419733573     Delta-E=       -0.000000001457 Rises=F Damp=F
 DIIS: error= 8.73D-07 at cycle  11 NSaved=  11.
 NSaved=11 IEnMin=11 EnMin= -574.435419733573     IErMin=11 ErrMin= 8.73D-07
 ErrMax= 8.73D-07  0.00D+00 EMaxC= 1.00D-01 BMatC= 2.53D-10 BMatP= 1.36D-09
 IDIUse=1 WtCom= 1.00D+00 WtEn= 0.00D+00
 Coeff-Com: -0.149D-04 0.359D-04 0.232D-04-0.824D-04-0.665D-03-0.547D-02
 Coeff-Com: -0.115D-01-0.264D-02 0.652D-01 0.391D+00 0.564D+00
 Coeff:     -0.149D-04 0.359D-04 0.232D-04-0.824D-04-0.665D-03-0.547D-02
 Coeff:     -0.115D-01-0.264D-02 0.652D-01 0.391D+00 0.564D+00
 Gap=     0.181 Goal=   None    Shift=    0.000
 RMSDP=9.92D-08 MaxDP=2.58D-06 DE=-1.46D-09 OVMax= 1.17D-05

 Cycle  12  Pass 1  IDiag  1:
 RMSU=  6.73D-08    CP:  9.97D-01  9.85D-01  6.54D-01  4.53D-01  6.74D-01
                    CP:  8.98D-01  7.38D-01  7.11D-01  8.79D-01  9.60D-01
                    CP:  6.70D-01
 E= -574.435419733858     Delta-E=       -0.000000000285 Rises=F Damp=F
 DIIS: error= 2.27D-07 at cycle  12 NSaved=  12.
 NSaved=12 IEnMin=12 EnMin= -574.435419733858     IErMin=12 ErrMin= 2.27D-07
 ErrMax= 2.27D-07  0.00D+00 EMaxC= 1.00D-01 BMatC= 3.66D-11 BMatP= 2.53D-10
 IDIUse=1 WtCom= 1.00D+00 WtEn= 0.00D+00
 Coeff-Com: -0.131D-04 0.275D-04 0.557D-04 0.353D-04-0.183D-03-0.231D-02
 Coeff-Com: -0.604D-02-0.654D-02 0.629D-02 0.106D+00 0.315D+00 0.587D+00
 Coeff:     -0.131D-04 0.275D-04 0.557D-04 0.353D-04-0.183D-03-0.231D-02
 Coeff:     -0.604D-02-0.654D-02 0.629D-02 0.106D+00 0.315D+00 0.587D+00
 Gap=     0.181 Goal=   None    Shift=    0.000
 RMSDP=3.40D-08 MaxDP=9.66D-07 DE=-2.85D-10 OVMax= 4.29D-06

 Cycle  13  Pass 1  IDiag  1:
 RMSU=  2.12D-08    CP:  9.97D-01  9.85D-01  6.54D-01  4.53D-01  6.74D-01
                    CP:  8.98D-01  7.38D-01  7.12D-01  8.84D-01  9.70D-01
                    CP:  7.90D-01  8.07D-01
 E= -574.435419733887     Delta-E=       -0.000000000030 Rises=F Damp=F
 DIIS: error= 8.53D-08 at cycle  13 NSaved=  13.
 NSaved=13 IEnMin=13 EnMin= -574.435419733887     IErMin=13 ErrMin= 8.53D-08
 ErrMax= 8.53D-08  0.00D+00 EMaxC= 1.00D-01 BMatC= 3.68D-12 BMatP= 3.66D-11
 IDIUse=1 WtCom= 1.00D+00 WtEn= 0.00D+00
 Coeff-Com: -0.534D-05 0.106D-04 0.271D-04 0.286D-04-0.293D-04-0.690D-03
 Coeff-Com: -0.205D-02-0.340D-02-0.392D-02 0.825D-02 0.106D+00 0.306D+00
 Coeff-Com:  0.589D+00
 Coeff:     -0.534D-05 0.106D-04 0.271D-04 0.286D-04-0.293D-04-0.690D-03
 Coeff:     -0.205D-02-0.340D-02-0.392D-02 0.825D-02 0.106D+00 0.306D+00
 Coeff:      0.589D+00
 Gap=     0.181 Goal=   None    Shift=    0.000
 RMSDP=1.17D-08 MaxDP=4.21D-07 DE=-2.98D-11 OVMax= 1.26D-06

 Cycle  14  Pass 1  IDiag  1:
 RMSU=  7.55D-09    CP:  9.97D-01  9.85D-01  6.54D-01  4.53D-01  6.74D-01
                    CP:  8.98D-01  7.38D-01  7.12D-01  8.86D-01  9.76D-01
                    CP:  8.03D-01  8.70D-01  7.26D-01
 E= -574.435419733885     Delta-E=        0.000000000002 Rises=F Damp=F
 DIIS: error= 3.27D-08 at cycle  14 NSaved=  14.
 NSaved=14 IEnMin=13 EnMin= -574.435419733887     IErMin=14 ErrMin= 3.27D-08
 ErrMax= 3.27D-08  0.00D+00 EMaxC= 1.00D-01 BMatC= 5.40D-13 BMatP= 3.68D-12
 IDIUse=1 WtCom= 1.00D+00 WtEn= 0.00D+00
 Coeff-Com: -0.399D-06 0.577D-06 0.379D-05 0.793D-05 0.203D-04 0.543D-04
 Coeff-Com:  0.514D-04-0.495D-03-0.252D-02-0.140D-01 0.447D-02 0.608D-01
 Coeff-Com:  0.314D+00 0.637D+00
 Coeff:     -0.399D-06 0.577D-06 0.379D-05 0.793D-05 0.203D-04 0.543D-04
 Coeff:      0.514D-04-0.495D-03-0.252D-02-0.140D-01 0.447D-02 0.608D-01
 Coeff:      0.314D+00 0.637D+00
 Gap=     0.181 Goal=   None    Shift=    0.000
 RMSDP=4.29D-09 MaxDP=1.85D-07 DE= 2.05D-12 OVMax= 5.50D-07

 Error on total polarization charges =  0.01475
 SCF Done:  E(RB972) =  -574.435419734     A.U. after   14 cycles
            NFock= 14  Conv=0.43D-08     -V/T= 2.0061
 KE= 5.709792408726D+02 PE=-2.771693563468D+03 EE= 9.108424016826D+02
 SMD-CDS (non-electrostatic) energy       (kcal/mol) =      -3.75
 (included in total energy above)
 Leave Link  502 at Tue Jun 28 22:18:35 2016, MaxMem=   268435456 cpu:       510.3
 (Enter /n/sw/g09_D.01/g09/l701.exe)
 Compute integral first derivatives.
 ... and contract with generalized density number  0.
 D1PCM: PCM CHGder 1st derivatives, ID1Alg=3 FixD1E=F DoIter=F DoCFld=F I1PDM=0.
 GePol: Maximum number of non-zero 1st derivatives   =     323
 Leave Link  701 at Tue Jun 28 22:18:43 2016, MaxMem=   268435456 cpu:        22.8
 (Enter /n/sw/g09_D.01/g09/l702.exe)
 L702 exits ... SP integral derivatives will be done elsewhere.
 Leave Link  702 at Tue Jun 28 22:18:43 2016, MaxMem=   268435456 cpu:         0.1
 (Enter /n/sw/g09_D.01/g09/l703.exe)
 Compute integral first derivatives, UseDBF=F ICtDFT=           0.
 Integral derivatives from FoFJK, PRISM(SPDF).
 Calling FoFJK, ICntrl=      2127 FMM=F ISym2X=0 I1Cent= 0 IOpClX= 0 NMat=1 NMatS=1 NMatT=0.
 FoFJK:  IHMeth= 1 ICntrl=    2127 DoSepK=F KAlg= 0 I1Cent=   0 FoldK=F
 IRaf=         0 NMat=   1 IRICut=       1 DoRegI=T DoRafI=F ISym2E= 0.
 FoFCou: FMM=F IPFlag=           0 FMFlag=      100000 FMFlg1=         800
         NFxFlg=           0 DoJE=F BraDBF=F KetDBF=F FulRan=T
         wScrn=  0.000000 ICntrl=    2127 IOpCl=  0 I1Cent=           0 NGrid=           0
         NMat0=    1 NMatS0=      1 NMatT0=    0 NMatD0=    1 NMtDS0=    0 NMtDT0=    0
 Symmetry not used in FoFCou.
 Leave Link  703 at Tue Jun 28 22:19:06 2016, MaxMem=   268435456 cpu:        76.8
 (Enter /n/sw/g09_D.01/g09/l716.exe)
 Dipole        = 1.15442071D+00-1.21836765D+00 1.49038464D+00
 ***** Axes restored to original set *****
 -------------------------------------------------------------------
 Center     Atomic                   Forces (Hartrees/Bohr)
 Number     Number              X              Y              Z
 -------------------------------------------------------------------
      1        6           0.002052829    0.002086371   -0.002695435
      2        6          -0.002626263   -0.000121168   -0.002417484
      3        6          -0.000683488    0.000898964    0.002408046
      4        6           0.001783614    0.003458937   -0.000978839
      5        6           0.000932079    0.001932248   -0.005339768
      6        6           0.000511053    0.000330497   -0.005803766
      7        1          -0.001315280   -0.001783804    0.002260265
      8        1          -0.000028078   -0.000646316   -0.002749034
      9        1           0.000571724    0.000414395    0.003130845
     10        1          -0.002036278   -0.002332441   -0.001575449
     11        6          -0.003581352   -0.003399936    0.003814685
     12        1           0.000176529    0.001830524    0.000026497
     13        1           0.001758801   -0.000148203    0.000676966
     14        1          -0.000502119   -0.000761902   -0.001747446
     15        1           0.002029193    0.002364142    0.000395040
     16        1           0.000927916    0.000702582    0.002787688
     17        1          -0.001319979   -0.002032881    0.002062774
     18        6           0.000531037   -0.002601158   -0.000191345
     19        8          -0.005784253   -0.005386752   -0.000584604
     20        8          -0.000278514    0.000007063    0.003085220
     21        6           0.002403467    0.000367715    0.001490171
     22        8           0.004477362    0.004821122    0.001944975
 -------------------------------------------------------------------
 Cartesian Forces:  Max     0.005803766 RMS     0.002376983
 Leave Link  716 at Tue Jun 28 22:19:06 2016, MaxMem=   268435456 cpu:         0.1
 (Enter /n/sw/g09_D.01/g09/l103.exe)

 GradGradGradGradGradGradGradGradGradGradGradGradGradGradGradGradGradGrad
 Berny optimization.
 FormGI is forming the generalized inverse of G from B-inverse, IUseBI=4.
 Internal  Forces:  Max     0.007402915 RMS     0.001687417
 Search for a local minimum.
 Step number   1 out of a maximum of  132
 All quantities printed in internal units (Hartrees-Bohrs-Radians)
 RMS Force = .16893D-02 SwitMx=.10000D-02 MixMth= 1
 Mixed Optimization -- RFO/linear search
 Second derivative matrix not updated -- first step.
 ITU=  0
     Eigenvalues ---    0.00600   0.00878   0.01117   0.01191   0.01414
     Eigenvalues ---    0.01606   0.01724   0.02190   0.02375   0.03299
     Eigenvalues ---    0.03709   0.03920   0.05081   0.05414   0.06055
     Eigenvalues ---    0.06776   0.07047   0.07181   0.07230   0.07676
     Eigenvalues ---    0.07936   0.08075   0.09088   0.09389   0.09757
     Eigenvalues ---    0.11370   0.13723   0.15676   0.16000   0.16000
     Eigenvalues ---    0.16000   0.20023   0.21498   0.23077   0.24509
     Eigenvalues ---    0.24995   0.24999   0.31100   0.32163   0.33952
     Eigenvalues ---    0.34005   0.34085   0.34368   0.35002   0.35166
     Eigenvalues ---    0.35293   0.35488   0.35507   0.35741   0.35821
     Eigenvalues ---    0.38808   0.40077   0.44030   0.44344   0.45843
     Eigenvalues ---    0.47734   1.03474   1.044661000.000001000.00000
     Eigenvalues --- 1000.000001000.000001000.000001000.000001000.00000
     Eigenvalues --- 1000.000001000.000001000.000001000.000001000.00000
     Eigenvalues --- 1000.000001000.000001000.000001000.000001000.00000
     Eigenvalues --- 1000.000001000.000001000.000001000.000001000.00000
     Eigenvalues --- 1000.000001000.000001000.000001000.000001000.00000
     Eigenvalues --- 1000.000001000.000001000.000001000.000001000.00000
     Eigenvalues --- 1000.000001000.000001000.000001000.000001000.00000
     Eigenvalues --- 1000.000001000.000001000.000001000.000001000.00000
     Eigenvalues --- 1000.000001000.000001000.000001000.000001000.00000
     Eigenvalues --- 1000.000001000.000001000.000001000.000001000.00000
     Eigenvalues --- 1000.000001000.000001000.000001000.000001000.00000
     Eigenvalues --- 1000.000001000.000001000.000001000.000001000.00000
     Eigenvalues --- 1000.000001000.000001000.000001000.000001000.00000
     Eigenvalues --- 1000.000001000.000001000.000001000.000001000.00000
     Eigenvalues --- 1000.00000
 RFO step:  Lambda=-1.18722075D-03 EMin= 6.00478837D-03
 Linear search not attempted -- first point.
 Iteration  1 RMS(Cart)=  0.01999565 RMS(Int)=  0.00037026
 Iteration  2 RMS(Cart)=  0.00032594 RMS(Int)=  0.00013353
 Iteration  3 RMS(Cart)=  0.00000011 RMS(Int)=  0.00013353
 Iteration  1 RMS(Cart)=  0.00000279 RMS(Int)=  0.00000034
 Iteration  2 RMS(Cart)=  0.00000019 RMS(Int)=  0.00000036
 ITry= 1 IFail=0 DXMaxC= 1.47D-01 DCOld= 1.00D+10 DXMaxT= 3.00D-01 DXLimC= 3.00D+00 Rises=F
 Variable       Old X    -DE/DX   Delta X   Delta X   Delta X     New X
                                 (Linear)    (Quad)   (Total)
    R1        2.63076  -0.00003   0.00000   0.00033   0.00035   2.63111
    R2        2.67152  -0.00086   0.00000  -0.00157  -0.00153   2.66999
    R3        2.85823  -0.00427   0.00000  -0.01367  -0.01367   2.84456
    R4        4.20398  -0.00159   0.00000   0.00000   0.00000   4.20398
    R5        2.04890   0.00310   0.00000   0.00870   0.00870   2.05759
    R6        2.05406   0.00310   0.00000   0.00880   0.00880   2.06285
    R7        2.60976  -0.00092   0.00000  -0.00186  -0.00184   2.60792
    R8        2.05671   0.00281   0.00000   0.00800   0.00800   2.06471
    R9        4.40854  -0.00151   0.00000   0.00000   0.00000   4.40854
   R10        2.04860   0.00317   0.00000   0.00891   0.00891   2.05751
   R11        2.05201   0.00342   0.00000   0.00966   0.00966   2.06167
   R12        2.63136  -0.00206   0.00000  -0.00330  -0.00333   2.62802
   R13        2.04362   0.00314   0.00000   0.00875   0.00875   2.05237
   R14        2.78791  -0.00403   0.00000  -0.01063  -0.01072   2.77718
   R15        2.04488   0.00298   0.00000   0.00832   0.00832   2.05320
   R16        2.80769  -0.00386   0.00000  -0.01096  -0.01087   2.79682
   R17        2.07187   0.00176   0.00000   0.00514   0.00514   2.07701
   R18        2.07322   0.00184   0.00000   0.00540   0.00540   2.07862
   R19        2.06714   0.00197   0.00000   0.00572   0.00572   2.07286
   R20        2.27279  -0.00740   0.00000  -0.00715  -0.00715   2.26564
   R21        2.63035  -0.00631   0.00000  -0.01470  -0.01464   2.61571
   R22        2.65939  -0.00580   0.00000  -0.01414  -0.01421   2.64518
   R23        2.26902  -0.00643   0.00000  -0.00615  -0.00615   2.26287
    A1        2.08135  -0.00006   0.00000  -0.00035  -0.00038   2.08097
    A2        2.09025   0.00076   0.00000   0.00441   0.00438   2.09463
    A3        2.09521  -0.00067   0.00000  -0.00147  -0.00151   2.09370
    A4        1.79960   0.00053   0.00000   0.00333   0.00332   1.80291
    A5        2.10638   0.00013   0.00000  -0.00210  -0.00211   2.10427
    A6        2.08829  -0.00044   0.00000  -0.00049  -0.00049   2.08780
    A7        1.50571  -0.00097   0.00000  -0.00872  -0.00871   1.49700
    A8        1.77607   0.00053   0.00000   0.00615   0.00616   1.78223
    A9        2.00719   0.00027   0.00000   0.00206   0.00207   2.00926
   A10        2.15172  -0.00019   0.00000  -0.00230  -0.00231   2.14941
   A11        2.04811  -0.00013   0.00000   0.00112   0.00109   2.04920
   A12        2.06087   0.00036   0.00000   0.00373   0.00369   2.06456
   A13        1.77161   0.00050   0.00000   0.00056   0.00054   1.77215
   A14        2.11970   0.00027   0.00000   0.00001   0.00000   2.11971
   A15        2.09500  -0.00063   0.00000  -0.00297  -0.00296   2.09204
   A16        1.43873  -0.00072   0.00000  -0.00376  -0.00374   1.43498
   A17        1.80398   0.00041   0.00000   0.00347   0.00347   1.80745
   A18        2.01311   0.00032   0.00000   0.00301   0.00301   2.01613
   A19        1.86947   0.00022   0.00000  -0.00033  -0.00034   1.86913
   A20        1.57626  -0.00057   0.00000  -0.00316  -0.00314   1.57312
   A21        1.65254   0.00089   0.00000   0.00400   0.00402   1.65656
   A22        2.21560   0.00047   0.00000   0.00128   0.00125   2.21685
   A23        1.88165  -0.00137   0.00000  -0.00481  -0.00479   1.87686
   A24        2.10314   0.00076   0.00000   0.00382   0.00379   2.10694
   A25        1.92351   0.00005   0.00000  -0.00086  -0.00085   1.92266
   A26        1.56807  -0.00048   0.00000  -0.00074  -0.00071   1.56736
   A27        1.67754   0.00125   0.00000   0.00793   0.00790   1.68544
   A28        2.20333   0.00040   0.00000  -0.00074  -0.00082   2.20252
   A29        1.87122  -0.00139   0.00000  -0.00440  -0.00429   1.86693
   A30        2.09377   0.00072   0.00000   0.00262   0.00255   2.09633
   A31        1.93452   0.00055   0.00000   0.00362   0.00361   1.93814
   A32        1.93594  -0.00062   0.00000  -0.00488  -0.00488   1.93106
   A33        1.94849  -0.00003   0.00000   0.00063   0.00063   1.94912
   A34        1.87239  -0.00023   0.00000  -0.00306  -0.00306   1.86933
   A35        1.88632   0.00004   0.00000   0.00210   0.00209   1.88841
   A36        1.88340   0.00030   0.00000   0.00156   0.00156   1.88496
   A37        2.27729   0.00159   0.00000   0.00627   0.00544   2.28273
   A38        1.87696   0.00205   0.00000   0.00937   0.00901   1.88597
   A39        2.12877  -0.00363   0.00000  -0.01451  -0.01530   2.11347
   A40        1.90799  -0.00125   0.00000  -0.00709  -0.00682   1.90117
   A41        1.87173   0.00197   0.00000   0.00954   0.00933   1.88105
   A42        2.29281   0.00159   0.00000   0.00541   0.00518   2.29798
   A43        2.11863  -0.00357   0.00000  -0.01514  -0.01536   2.10327
    D1       -1.05500   0.00069   0.00000   0.00530   0.00530  -1.04970
    D2        0.57638  -0.00011   0.00000  -0.00364  -0.00365   0.57273
    D3       -3.00846  -0.00013   0.00000  -0.00450  -0.00451  -3.01296
    D4        1.89329   0.00079   0.00000   0.02030   0.02032   1.91361
    D5       -2.75851  -0.00001   0.00000   0.01136   0.01137  -2.74714
    D6       -0.06016  -0.00003   0.00000   0.01050   0.01051  -0.04965
    D7       -0.00072  -0.00033   0.00000  -0.00844  -0.00844  -0.00916
    D8        2.90988  -0.00005   0.00000   0.00494   0.00493   2.91481
    D9       -2.94845  -0.00059   0.00000  -0.02415  -0.02412  -2.97257
   D10       -0.03785  -0.00031   0.00000  -0.01077  -0.01075  -0.04860
   D11       -0.80462   0.00020   0.00000   0.00087   0.00087  -0.80375
   D12        1.27344  -0.00014   0.00000  -0.00377  -0.00378   1.26966
   D13       -2.90855  -0.00020   0.00000  -0.00470  -0.00471  -2.91326
   D14        2.14212   0.00037   0.00000   0.01612   0.01613   2.15825
   D15       -2.06300   0.00003   0.00000   0.01148   0.01148  -2.05152
   D16        0.03819  -0.00003   0.00000   0.01055   0.01055   0.04875
   D17        0.94019  -0.00030   0.00000  -0.00172  -0.00168   0.93851
   D18       -3.09196  -0.00007   0.00000  -0.00314  -0.00317  -3.09513
   D19       -0.99522   0.00067   0.00000  -0.00012  -0.00020  -0.99542
   D20       -1.16571  -0.00025   0.00000   0.00226   0.00231  -1.16340
   D21        1.08532  -0.00002   0.00000   0.00084   0.00083   1.08615
   D22       -3.10112   0.00072   0.00000   0.00386   0.00380  -3.09733
   D23        3.11424  -0.00035   0.00000   0.00174   0.00181   3.11606
   D24       -0.91791  -0.00012   0.00000   0.00033   0.00033  -0.91758
   D25        1.17883   0.00062   0.00000   0.00334   0.00329   1.18213
   D26        1.00142  -0.00036   0.00000   0.00572   0.00574   1.00716
   D27       -0.53634   0.00014   0.00000   0.00984   0.00985  -0.52648
   D28        2.97293   0.00022   0.00000   0.00906   0.00906   2.98199
   D29       -1.90760  -0.00058   0.00000  -0.00742  -0.00741  -1.91501
   D30        2.83783  -0.00008   0.00000  -0.00330  -0.00330   2.83453
   D31        0.06392   0.00000   0.00000  -0.00409  -0.00409   0.05983
   D32       -0.82790   0.00017   0.00000  -0.00325  -0.00326  -0.83116
   D33       -3.08099  -0.00016   0.00000  -0.00327  -0.00326  -3.08425
   D34        1.09655  -0.00092   0.00000  -0.00701  -0.00698   1.08957
   D35        1.27819   0.00031   0.00000  -0.00385  -0.00386   1.27433
   D36       -0.97490  -0.00002   0.00000  -0.00387  -0.00387  -0.97877
   D37       -3.08054  -0.00078   0.00000  -0.00761  -0.00759  -3.08813
   D38       -3.00928   0.00049   0.00000  -0.00164  -0.00165  -3.01093
   D39        1.02082   0.00015   0.00000  -0.00166  -0.00166   1.01916
   D40       -1.08482  -0.00061   0.00000  -0.00540  -0.00538  -1.09020
   D41       -0.04402  -0.00011   0.00000   0.00105   0.00104  -0.04299
   D42       -1.88430   0.00027   0.00000   0.00324   0.00322  -1.88108
   D43        1.76183   0.00070   0.00000   0.00775   0.00776   1.76958
   D44        1.76779  -0.00045   0.00000  -0.00285  -0.00285   1.76493
   D45       -0.07248  -0.00007   0.00000  -0.00067  -0.00067  -0.07316
   D46       -2.70954   0.00036   0.00000   0.00384   0.00387  -2.70568
   D47       -1.80460  -0.00067   0.00000  -0.00147  -0.00152  -1.80612
   D48        2.63831  -0.00029   0.00000   0.00071   0.00066   2.63897
   D49        0.00125   0.00014   0.00000   0.00522   0.00520   0.00645
   D50       -1.81742  -0.00043   0.00000  -0.01251  -0.01246  -1.82988
   D51        1.33010   0.00021   0.00000   0.02750   0.02760   1.35770
   D52        0.09649  -0.00014   0.00000  -0.01236  -0.01231   0.08418
   D53       -3.03917   0.00049   0.00000   0.02765   0.02774  -3.01143
   D54        2.84032  -0.00038   0.00000  -0.01164  -0.01164   2.82869
   D55       -0.29534   0.00025   0.00000   0.02837   0.02842  -0.26692
   D56       -1.24329  -0.00075   0.00000  -0.06339  -0.06356  -1.30685
   D57        1.87913   0.00007   0.00000   0.00474   0.00470   1.88383
   D58        3.06096  -0.00094   0.00000  -0.06440  -0.06458   2.99637
   D59       -0.09981  -0.00012   0.00000   0.00373   0.00368  -0.09613
   D60        0.38616  -0.00049   0.00000  -0.05926  -0.05939   0.32677
   D61       -2.77461   0.00033   0.00000   0.00888   0.00887  -2.76573
   D62        0.16273  -0.00005   0.00000  -0.01235  -0.01218   0.15055
   D63       -2.99606   0.00075   0.00000   0.04899   0.04841  -2.94765
   D64       -0.16182   0.00014   0.00000   0.01552   0.01536  -0.14647
   D65        2.97456  -0.00040   0.00000  -0.01957  -0.01930   2.95526
         Item               Value     Threshold  Converged?
 Maximum Force            0.007403     0.000450     NO 
 RMS     Force            0.001689     0.000300     NO 
 Maximum Displacement     0.146692     0.001800     NO 
 RMS     Displacement     0.019998     0.001200     NO 
 Predicted change in Energy=-6.072723D-04
 Lowest energy point so far.  Saving SCF results.
 GradGradGradGradGradGradGradGradGradGradGradGradGradGradGradGradGradGrad

 Leave Link  103 at Tue Jun 28 22:19:07 2016, MaxMem=   268435456 cpu:         0.5
 (Enter /n/sw/g09_D.01/g09/l202.exe)
                          Input orientation:                          
 ---------------------------------------------------------------------
 Center     Atomic      Atomic             Coordinates (Angstroms)
 Number     Number       Type             X           Y           Z
 ---------------------------------------------------------------------
      1          6           0        1.735434   -0.645894   -0.133543
      2          6           0        1.699729   -0.109148    1.150666
      3          6           0        0.849658   -1.694656   -0.467877
      4          6           0       -0.055555   -2.231449    0.424866
      5          6           0       -1.290937   -0.346314    1.026969
      6          6           0       -0.379968    0.661100    1.325751
      7          1           0        1.453671   -0.736120    2.006185
      8          1           0        0.745354   -1.946931   -1.525824
      9          1           0        0.148096   -2.257073    1.494130
     10          1           0       -0.813915   -2.932888    0.073964
     11          6           0        2.537515    0.033004   -1.211326
     12          1           0        2.355676    1.116955   -1.215156
     13          1           0        3.614677   -0.113746   -1.043705
     14          1           0        2.292791   -0.358915   -2.206174
     15          1           0        2.292716    0.777839    1.381413
     16          1           0       -0.150260    1.045516    2.315680
     17          1           0       -1.861363   -0.942550    1.733128
     18          6           0       -0.327622    1.558665    0.150134
     19          8           0        0.208581    2.620218   -0.001576
     20          8           0       -1.102222    0.999452   -0.851472
     21          6           0       -1.802580   -0.093283   -0.327279
     22          8           0       -2.677265   -0.613941   -0.957952
 ---------------------------------------------------------------------
                    Distance matrix (angstroms):
                    1          2          3          4          5
     1  C    0.000000
     2  C    1.392323   0.000000
     3  C    1.412897   2.419945   0.000000
     4  C    2.456307   2.848152   1.380054   0.000000
     5  C    3.255066   3.002603   2.938492   2.332901   0.000000
     6  C    2.883175   2.224651   3.206036   3.046912   1.390690
     7  H    2.160085   1.088830   2.721141   2.648461   2.940015
     8  H    2.147417   3.384062   1.092600   2.127815   3.636648
     9  H    2.786549   2.671912   2.158234   1.088787   2.437223
    10  H    3.431119   3.930801   2.143429   1.090990   2.797523
    11  C    1.505275   2.510199   2.527130   3.811678   4.450943
    12  H    2.159219   2.744214   3.275923   4.440216   4.523944
    13  H    2.154793   2.912441   3.236694   4.484637   5.329805
    14  H    2.165364   3.417964   2.624598   3.992929   4.826642
    15  H    2.152364   1.091615   3.408155   3.935121   3.772521
    16  H    3.523551   2.472442   4.031944   3.784528   2.213394
    17  H    4.063178   3.703403   3.572075   2.575607   1.086068
    18  C    3.032615   2.809415   3.514544   3.809785   2.307760
    19  O    3.607795   3.316719   4.387090   4.877530   3.479479
    20  O    3.357808   3.617800   3.348910   3.628122   2.318457
    21  C    3.586147   3.801412   3.101375   2.861742   1.469622
    22  O    4.489162   4.884583   3.721197   3.376667   2.435865
                    6          7          8          9         10
     6  C    0.000000
     7  H    2.403631   0.000000
     8  H    4.024880   3.800377   0.000000
     9  H    2.970343   2.068823   3.094031   0.000000
    10  H    3.830409   3.701516   2.441875   1.843655   0.000000
    11  C    3.917011   3.481185   2.689033   4.274725   4.656240
    12  H    3.761351   3.824204   3.475205   4.857747   5.301827
    13  H    4.708704   3.789343   3.438899   4.801212   5.367418
    14  H    4.545170   4.311656   2.319317   4.679206   4.634219
    15  H    2.675811   1.840219   4.274427   3.717901   5.012990
    16  H    1.086509   2.417149   4.951164   3.416294   4.614481
    17  H    2.220851   3.332661   4.292380   2.413093   2.794891
    18  C    1.480013   3.447313   4.031044   4.073388   4.518443
    19  O    2.438511   4.104432   4.844617   5.101840   5.646964
    20  O    2.318714   4.208444   3.542522   4.203583   4.050044
    21  C    2.307689   4.057273   3.371126   3.435790   3.033449
    22  O    3.481178   5.085830   3.716674   4.085983   3.148721
                   11         12         13         14         15
    11  C    0.000000
    12  H    1.099104   0.000000
    13  H    1.099959   1.768928   0.000000
    14  H    1.096911   1.778838   1.777309   0.000000
    15  H    2.708690   2.619377   2.902361   3.763375   0.000000
    16  H    4.548526   4.330315   5.177269   5.328048   2.629190
    17  H    5.382532   5.542325   6.195541   5.754626   4.509968
    18  C    3.519976   3.042896   4.445665   4.011966   2.998651
    19  O    3.685255   2.888355   4.490221   4.251990   3.106548
    20  O    3.783015   3.478956   4.850289   3.899550   4.069458
    21  C    4.431017   4.420871   5.464463   4.513632   4.522160
    22  O    5.260862   5.328476   6.312376   5.130746   5.666603
                   16         17         18         19         20
    16  H    0.000000
    17  H    2.686940   0.000000
    18  C    2.232570   3.333812   0.000000
    19  O    2.824559   4.470703   1.198927   0.000000
    20  O    3.307448   3.320817   1.384174   2.251091   0.000000
    21  C    3.318472   2.229346   2.265470   3.393220   1.399768
    22  O    4.456032   2.831181   3.386574   4.438755   2.257241
                   21         22
    21  C    0.000000
    22  O    1.197458   0.000000
 Stoichiometry    C9H10O3
 Framework group  C1[X(C9H10O3)]
 Deg. of freedom    60
 Full point group                 C1      NOp   1
 RotChk:  IX=0 Diff= 7.68D-02
 Largest Abelian subgroup         C1      NOp   1
 Largest concise Abelian subgroup C1      NOp   1
                         Standard orientation:                         
 ---------------------------------------------------------------------
 Center     Atomic      Atomic             Coordinates (Angstroms)
 Number     Number       Type             X           Y           Z
 ---------------------------------------------------------------------
      1          6           0        1.776381   -0.557418   -0.125322
      2          6           0        1.706958   -0.015901    1.155500
      3          6           0        0.949618   -1.654286   -0.456414
      4          6           0        0.071226   -2.233835    0.436391
      5          6           0       -1.266114   -0.414484    1.022828
      6          6           0       -0.411834    0.642247    1.318707
      7          1           0        1.491758   -0.650218    2.013918
      8          1           0        0.863063   -1.917971   -1.513179
      9          1           0        0.271899   -2.242226    1.506492
     10          1           0       -0.646939   -2.977126    0.087083
     11          6           0        2.544844    0.157396   -1.204376
     12          1           0        2.304938    1.229942   -1.215367
     13          1           0        3.627699    0.069842   -1.032127
     14          1           0        2.325351   -0.252922   -2.197692
     15          1           0        2.250461    0.903060    1.382963
     16          1           0       -0.206913    1.044236    2.307096
     17          1           0       -1.806298   -1.036448    1.730576
     18          6           0       -0.403413    1.534464    0.137895
     19          8           0        0.075445    2.622449   -0.018339
     20          8           0       -1.142978    0.928526   -0.863015
     21          6           0       -1.785488   -0.197266   -0.334690
     22          8           0       -2.628477   -0.767934   -0.965256
 ---------------------------------------------------------------------
 Rotational constants (GHZ):      1.2199261      0.9784340      0.7450007
 Leave Link  202 at Tue Jun 28 22:19:07 2016, MaxMem=   268435456 cpu:         0.1
 (Enter /n/sw/g09_D.01/g09/l301.exe)
 Standard basis: CC-pVDZ (5D, 7F)
 Ernie: Thresh=  0.10000D-02 Tol=  0.10000D-05 Strict=F.
 Ernie:  24 primitive shells out of 314 were deleted.
 There are   230 symmetry adapted cartesian basis functions of A   symmetry.
 There are   218 symmetry adapted basis functions of A   symmetry.
   218 basis functions,   466 primitive gaussians,   230 cartesian basis functions
    44 alpha electrons       44 beta electrons
       nuclear repulsion energy       715.4129309207 Hartrees.
 IExCor= 1715 DFT=T Ex+Corr=B972 ExCW=0 ScaHFX=  0.210000
 ScaDFX=  1.000000  1.000000  1.000000  1.000000 ScalE2=  1.000000  1.000000
 IRadAn=      0 IRanWt=     -1 IRanGd=            0 ICorTp=0 IEmpDi=  4
 NAtoms=   22 NActive=   22 NUniq=   22 SFac= 1.00D+00 NAtFMM=   60 NAOKFM=F Big=F
 Integral buffers will be    131072 words long.
 Raffenetti 2 integral format.
 Two-electron integral symmetry is turned on.
 ------------------------------------------------------------------------------
 Polarizable Continuum Model (PCM)
 =================================
 Model                : PCM (using non-symmetric T matrix).
 Atomic radii         : SMD-Coulomb.
 Polarization charges : Total charges.
 Charge compensation  : None.
 Solution method      : On-the-fly selection.
 Cavity type          : VdW (van der Waals Surface) (Alpha=1.000).
 Cavity algorithm     : GePol (No added spheres)
                        Default sphere list used, NSphG=   22.
                        Lebedev-Laikov grids with approx.  5.0 points / Ang**2.
                        Smoothing algorithm: Karplus/York (Gamma=1.0000).
                        Polarization charges: spherical gaussians, with
                                              point-specific exponents (IZeta= 3).
                        Self-potential: point-specific (ISelfS= 7).
                        Self-field    : sphere-specific E.n sum rule (ISelfD= 2).
 1st derivatives      : Analytical E(r).r(x)/FMM algorithm (CHGder, D1EAlg=3).
                        Cavity 1st derivative terms included.
 Solvent              : o-Xylene, Eps=   2.545400 Eps(inf)=   2.266530
 ------------------------------------------------------------------------------
 GePol: Number of generator spheres                  =      22
 GePol: Total number of spheres                      =      22
 GePol: Number of exposed spheres                    =      22 (100.00%)
 GePol: Number of points                             =    1766
 GePol: Average weight of points                     =       0.12
 GePol: Minimum weight of points                     =   0.39D-10
 GePol: Maximum weight of points                     =    0.17992
 GePol: Number of points with low weight             =      82
 GePol: Fraction of low-weight points (<1% of avg)   =       4.64%
 GePol: Cavity surface area                          =    217.276 Ang**2
 GePol: Cavity volume                                =    221.311 Ang**3
 ------------------------------------------------------------------------------
 Atomic radii for non-electrostatic terms: SMD-CDS.
 ------------------------------------------------------------------------------
 PCM non-electrostatic energy =        -0.0061278420 Hartrees.
 Nuclear repulsion after PCM non-electrostatic terms =      715.4068030787 Hartrees.
 Leave Link  301 at Tue Jun 28 22:19:07 2016, MaxMem=   268435456 cpu:         0.2
 (Enter /n/sw/g09_D.01/g09/l302.exe)
 NPDir=0 NMtPBC=     1 NCelOv=     1 NCel=       1 NClECP=     1 NCelD=      1
         NCelK=      1 NCelE2=     1 NClLst=     1 CellRange=     0.0.
 One-electron integrals computed using PRISM.
 NBasis=   218 RedAO= T EigKep=  8.88D-04  NBF=   218
 NBsUse=   218 1.00D-06 EigRej= -1.00D+00 NBFU=   218
 Precomputing XC quadrature grid using
 IXCGrd= 4 IRadAn=           0 IRanWt=          -1 IRanGd=           0 AccXCQ= 0.00D+00.
 Generated NRdTot=       0 NPtTot=           0 NUsed=           0 NTot=          32
 NSgBfM=   230   230   230   230   230 MxSgAt=    22 MxSgA2=    22.
 Leave Link  302 at Tue Jun 28 22:19:08 2016, MaxMem=   268435456 cpu:         3.6
 (Enter /n/sw/g09_D.01/g09/l303.exe)
 DipDrv:  MaxL=1.
 Leave Link  303 at Tue Jun 28 22:19:08 2016, MaxMem=   268435456 cpu:         0.5
 (Enter /n/sw/g09_D.01/g09/l401.exe)
 Initial guess from the checkpoint file:  "checkpoint.chk"
 B after Tr=     0.000000    0.000000    0.000000
         Rot=    0.999598    0.001674    0.000885   -0.028304 Ang=   3.25 deg.
 Guess basis will be translated and rotated to current coordinates.
 JPrj=2 DoOrth=T DoCkMO=T.
 Generating alternative initial guess.
 ExpMin= 1.22D-01 ExpMax= 1.17D+04 ExpMxC= 4.01D+02 IAcc=1 IRadAn=         1 AccDes= 0.00D+00
 Harris functional with IExCor= 1715 and IRadAn=       1 diagonalized for initial guess.
 HarFok:  IExCor= 1715 AccDes= 0.00D+00 IRadAn=         1 IDoV= 1 UseB2=F ITyADJ=14
 ICtDFT=  3500011 ScaDFX=  1.000000  1.000000  1.000000  1.000000
 FoFCou: FMM=F IPFlag=           0 FMFlag=      100000 FMFlg1=           0
         NFxFlg=           0 DoJE=T BraDBF=F KetDBF=T FulRan=T
         wScrn=  0.000000 ICntrl=     500 IOpCl=  0 I1Cent=   200000004 NGrid=           0
         NMat0=    1 NMatS0=      1 NMatT0=    0 NMatD0=    1 NMtDS0=    0 NMtDT0=    0
 Petite list used in FoFCou.
 Harris En= -558.863952132784    
 Leave Link  401 at Tue Jun 28 22:19:11 2016, MaxMem=   268435456 cpu:         7.3
 (Enter /n/sw/g09_D.01/g09/l502.exe)
 Closed shell SCF:
 Using DIIS extrapolation, IDIIS=  1040.
 Integral symmetry usage will be decided dynamically.
 IVT=      180374 IEndB=      180374 NGot=   268435456 MDV=   268324853
 LenX=   268324853 LenY=   268271512
 Requested convergence on RMS density matrix=1.00D-08 within 128 cycles.
 Requested convergence on MAX density matrix=1.00D-06.
 Requested convergence on             energy=1.00D-06.
 No special actions if energy rises.
 Fock matrices will be formed incrementally for  20 cycles.

 Cycle   1  Pass 1  IDiag  1:
 FoFJK:  IHMeth= 1 ICntrl=       0 DoSepK=F KAlg= 0 I1Cent=   0 FoldK=F
 IRaf= 960000000 NMat=   1 IRICut=       1 DoRegI=T DoRafI=F ISym2E= 0.
 FoFCou: FMM=F IPFlag=           0 FMFlag=      100000 FMFlg1=           0
         NFxFlg=           0 DoJE=F BraDBF=F KetDBF=F FulRan=T
         wScrn=  0.000000 ICntrl=       0 IOpCl=  0 I1Cent=           0 NGrid=           0
         NMat0=    1 NMatS0=      1 NMatT0=    0 NMatD0=    1 NMtDS0=    0 NMtDT0=    0
 Symmetry not used in FoFCou.
 Inv3:  Mode=1 IEnd=     9356268.
 Iteration    1 A*A^-1 deviation from unit magnitude is 7.11D-15 for    348.
 Iteration    1 A*A^-1 deviation from orthogonality  is 4.56D-15 for    548    272.
 Iteration    1 A^-1*A deviation from unit magnitude is 7.11D-15 for    806.
 Iteration    1 A^-1*A deviation from orthogonality  is 2.14D-15 for   1285    935.
 E= -574.433056646583    
 DIIS: error= 2.08D-03 at cycle   1 NSaved=   1.
 NSaved= 1 IEnMin= 1 EnMin= -574.433056646583     IErMin= 1 ErrMin= 2.08D-03
 ErrMax= 2.08D-03  0.00D+00 EMaxC= 1.00D-01 BMatC= 1.63D-03 BMatP= 1.63D-03
 IDIUse=3 WtCom= 9.79D-01 WtEn= 2.08D-02
 Coeff-Com:  0.100D+01
 Coeff-En:   0.100D+01
 Coeff:      0.100D+01
 Gap=     0.699 Goal=   None    Shift=    0.000
 GapD=    0.699 DampG=2.000 DampE=1.000 DampFc=2.0000 IDamp=-1.
 RMSDP=3.01D-04 MaxDP=1.28D-02              OVMax= 1.37D-02

 Cycle   2  Pass 1  IDiag  1:
 RMSU=  3.01D-04    CP:  1.00D+00
 E= -574.435740996130     Delta-E=       -0.002684349548 Rises=F Damp=F
 DIIS: error= 3.99D-04 at cycle   2 NSaved=   2.
 NSaved= 2 IEnMin= 2 EnMin= -574.435740996130     IErMin= 2 ErrMin= 3.99D-04
 ErrMax= 3.99D-04  0.00D+00 EMaxC= 1.00D-01 BMatC= 7.37D-05 BMatP= 1.63D-03
 IDIUse=3 WtCom= 9.96D-01 WtEn= 3.99D-03
 Coeff-Com: -0.182D-01 0.102D+01
 Coeff-En:   0.000D+00 0.100D+01
 Coeff:     -0.181D-01 0.102D+01
 Gap=     0.182 Goal=   None    Shift=    0.000
 RMSDP=7.76D-05 MaxDP=2.91D-03 DE=-2.68D-03 OVMax= 5.65D-03

 Cycle   3  Pass 1  IDiag  1:
 RMSU=  7.63D-05    CP:  1.00D+00  1.04D+00
 E= -574.435656963255     Delta-E=        0.000084032876 Rises=F Damp=F
 DIIS: error= 8.93D-04 at cycle   3 NSaved=   3.
 NSaved= 3 IEnMin= 2 EnMin= -574.435740996130     IErMin= 2 ErrMin= 3.99D-04
 ErrMax= 8.93D-04  0.00D+00 EMaxC= 1.00D-01 BMatC= 1.99D-04 BMatP= 7.37D-05
 IDIUse=3 WtCom= 2.51D-01 WtEn= 7.49D-01
 Coeff-Com: -0.518D-01 0.672D+00 0.380D+00
 Coeff-En:   0.000D+00 0.681D+00 0.319D+00
 Coeff:     -0.130D-01 0.679D+00 0.334D+00
 Gap=     0.182 Goal=   None    Shift=    0.000
 RMSDP=5.09D-05 MaxDP=2.24D-03 DE= 8.40D-05 OVMax= 3.79D-03

 Cycle   4  Pass 1  IDiag  1:
 RMSU=  1.97D-05    CP:  1.00D+00  1.07D+00  3.99D-01
[...]
 ,0.00003296,-0.00003434,0.00002980,0.00005490,-0.00013248,-0.00009232,
 0.00017867,-0.10495891,-0.24545327,-0.07528765,0.11399231,0.26234728,0
 .01015886,0.02197785,0.00750575,0.00040686,0.00126922,0.00112854,0.002
 58814,0.00120911,-0.00386160,0.00083022,0.00084334,0.00091186,0.000095
 49,-0.00020843,0.00001749,0.00025483,0.00000055,0.00000048,-0.00008213
 ,0.00004094,0.00026112,0.00006362,0.00022301,0.00009923,-0.00005329,-0
 .00005948,0.00002598,0.00027652,0.00017017,-0.00022554,-0.04138771,-0.
 08008145,-0.07795091,0.03998968,0.08224332,0.08265744,-0.01120852,0.00
 936639,0.00580627,-0.00067912,-0.00162161,-0.00024483,0.00113137,-0.00
 086582,0.00081527,0.00065346,-0.00025307,-0.00021542,-0.00030731,0.000
 37715,-0.00001407,-0.00052114,-0.00022741,-0.00010130,0.00039972,0.000
 04946,0.00022724,-0.00055471,0.00005875,-0.00020322,-0.00006042,0.0000
 7142,-0.00005957,-0.00006082,0.00005218,0.00001096,-0.18368643,0.12156
 834,0.06356947,0.01071110,-0.00921375,-0.00502729,0.19708576,-0.012476
 43,0.01081502,0.00587830,-0.00016371,-0.00102900,0.00033029,-0.0011130
 7,-0.00100018,0.00090442,0.00155006,-0.00000748,-0.00083846,-0.0006428
 6,0.00096897,0.00003377,-0.00076512,-0.00020508,-0.00015989,0.00069668
 ,-0.00006943,0.00034047,-0.00003402,-0.00002325,-0.00031349,-0.0000922
 0,0.00019660,-0.00001556,-0.00001434,0.00007076,-0.00004111,0.12067405
 ,-0.14940381,-0.05394441,0.01941256,-0.01438435,-0.00677489,-0.1308649
 8,0.15865194,0.01798337,-0.01490092,-0.01070200,0.00090304,0.00262105,
 -0.00156759,-0.00145711,-0.00058186,0.00069449,-0.00010579,0.00027744,
 -0.00044754,0.00000242,-0.00010166,0.00006780,0.00046377,0.00003505,0.
 00023433,-0.00099701,0.00032796,-0.00085788,0.00024915,-0.00025621,0.0
 0030444,0.00004411,0.00002744,0.00006766,0.00004723,-0.00004505,0.0000
 0464,0.06413863,-0.05446303,-0.06848364,0.00750274,-0.00529957,-0.0038
 7754,-0.07161699,0.05671032,0.07650702,0.01085526,-0.00493187,0.016487
 84,-0.00108748,-0.00075223,0.00114118,0.00048215,-0.00032267,0.0007023
 7,0.00042155,0.00022159,-0.00015077,-0.00040392,0.00023539,-0.00014903
 ,-0.00017632,-0.00005227,0.00003647,-0.00082186,0.00040733,0.00045020,
 -0.00006275,0.00001752,-0.00014006,-0.00002613,0.00003013,0.00007371,0
 .00002183,-0.00001436,-0.00004252,-0.13885767,0.03342232,-0.12904085,-
 0.00736504,0.00426602,-0.00800532,-0.01297822,0.00345951,-0.01753122,0
 .14951686,0.00839921,-0.00302003,0.00852606,-0.00058489,-0.00077864,0.
 00040777,-0.00030344,0.00015573,0.00114805,0.00044075,0.00018664,-0.00
 050856,-0.00067781,0.00033603,-0.00027824,0.00005119,-0.00017119,-0.00
 001729,-0.00014811,0.00029064,0.00011429,-0.00046195,-0.00053213,-0.00
 003910,-0.00001695,0.00005137,-0.00006099,0.00001008,-0.00002440,-0.00
 001379,0.03277444,-0.05815861,0.04804779,-0.01549534,0.00727080,-0.020
 56596,0.01150001,-0.00435446,0.01578353,-0.03584548,0.05839317,-0.0105
 0509,0.00439876,-0.01887609,0.00141083,0.00258262,-0.00165221,-0.00186
 746,-0.00283039,0.00074717,0.00154727,-0.00059122,-0.00030763,0.000391
 39,0.00076502,0.00065567,-0.00076309,-0.00029560,0.00002456,0.00128438
 ,-0.00062144,-0.00076755,-0.00027106,0.00079301,0.00036383,-0.00023450
 ,0.00005062,0.00005666,0.00000804,0.00003681,-0.00002316,-0.12847007,0
 .04730338,-0.21089173,-0.00435914,0.00318676,-0.00674767,0.00686510,-0
 .00261072,0.00824031,0.13541784,-0.05289686,0.23012810,0.00392085,0.00
 314398,0.00241704,-0.12109990,-0.14054266,-0.03246871,0.00429976,-0.00
 296507,0.00305123,-0.00172219,0.00011020,-0.00055134,-0.00130475,0.000
 35050,-0.00021463,-0.00275078,-0.00408083,-0.00148136,-0.00094878,-0.0
 0343347,-0.00216638,0.00027113,0.00043963,0.00012376,-0.00016715,0.000
 37037,0.00014196,0.00033486,-0.00030226,-0.00014226,-0.00267201,0.0028
 6641,-0.00068464,0.00051849,0.00013521,-0.00023314,-0.00007703,-0.0000
 1189,0.00071183,0.00035612,0.00017535,-0.00042021,0.12121925,-0.008451
 89,-0.00699858,0.00128069,-0.13594418,-0.25009379,-0.04998765,-0.00089
 540,0.00219236,-0.00354284,0.00103666,0.00037656,0.00050444,0.00049750
 ,-0.00062712,-0.00009027,0.00317208,0.00200134,0.00064097,-0.00729852,
 -0.00837757,-0.00593860,-0.00049469,-0.00052987,-0.00012936,0.00018649
 ,0.00010857,-0.00022915,-0.00020163,0.00019403,-0.00003629,0.00192773,
 -0.00093777,0.00225161,0.00011655,0.00055995,-0.00026058,0.00006996,0.
 00012296,-0.00039589,-0.00007820,0.00017179,0.00043996,0.14628127,0.26
 030209,-0.01650848,-0.02204772,-0.00224106,-0.02630154,-0.04784408,-0.
 06492274,0.00167426,-0.00253644,-0.00473930,0.00085950,0.00062310,-0.0
 0091684,-0.00005835,0.00053409,0.00014131,-0.00120512,0.00050364,-0.00
 046857,0.01245893,0.01769499,0.00619837,-0.00094671,-0.00109581,-0.000
 18505,-0.00001637,-0.00035596,0.00055827,-0.00010225,0.00005221,0.0003
 4761,-0.00174950,-0.00110580,0.00103278,0.00048050,0.00074497,0.000200
 49,0.00006795,0.00017387,0.00013254,0.00009409,0.00003935,-0.00000273,
 0.03087257,0.05527483,0.06472049,-0.00244561,-0.00415261,-0.00471903,-
 0.01114573,0.00866715,0.00941243,0.00398906,0.00430429,-0.00094929,-0.
 00415750,0.00232555,0.00284428,-0.00167766,-0.00939405,-0.01993495,-0.
 03156396,-0.02929867,-0.05019201,0.00085815,-0.00022353,0.00090009,0.0
 0022655,-0.00020406,0.00003539,0.00047624,-0.00048928,-0.00000523,-0.0
 0001109,0.00009446,0.00002328,0.00052772,-0.00034647,0.00017725,-0.000
 02071,-0.00000412,0.00001227,0.00007801,0.00012189,-0.00011672,-0.0000
 1752,-0.00001517,0.00006864,-0.00018565,-0.00027919,0.00039089,0.04653
 499,0.00146002,0.00197441,0.00301349,0.00604453,-0.00441488,-0.0053713
 4,-0.00201738,-0.00208727,0.00071433,0.00125820,-0.00134839,-0.0018553
 8,0.00042070,0.00350187,-0.01788396,-0.03984352,-0.09002724,-0.1059961
 3,-0.00016785,-0.00002871,-0.00068832,-0.00013480,0.00006897,-0.000026
 67,-0.00020354,0.00017386,-0.00002373,0.00019792,-0.00023842,0.0000077
 9,-0.00033947,0.00017315,-0.00012547,0.00003393,0.00002276,-0.00000964
 ,-0.00002529,-0.00002452,0.00004379,0.00002939,0.00004991,-0.00010883,
 -0.00046169,0.00057628,0.00003291,0.03035986,0.08513078,-0.00017566,0.
 00047617,0.00060749,0.00050232,0.00006020,-0.00114164,-0.00012172,-0.0
 0021348,-0.00005978,-0.00001084,0.00050568,0.00022788,0.00229848,0.002
 74978,0.00378654,-0.05879011,-0.10133486,-0.31087490,-0.00073512,0.000
 05941,0.00080716,0.00003078,0.00002535,0.00003919,0.00004778,-0.000080
 96,0.00000997,-0.00003984,0.00008062,-0.00000560,0.00017086,-0.0000912
 1,0.00005772,-0.00002166,-0.00001304,0.00000421,-0.00001235,-0.0000073
 2,0.00001707,-0.00004789,-0.00006693,0.00012034,0.00019004,0.00009763,
 -0.00005642,0.06197309,0.10816290,0.31866999,-0.00172335,-0.00276704,-
 0.00259530,-0.00269443,0.00090242,0.00195494,0.00293080,0.00303730,-0.
 00146941,-0.00744487,0.00299615,0.00550448,-0.12577378,-0.11217283,0.1
 0344856,0.00202213,-0.00297047,0.01310865,0.00024877,-0.00020359,-0.00
 001383,0.00027434,-0.00014255,0.00005397,-0.00019403,-0.00044928,0.000
 48823,0.00029635,-0.00006239,0.00019641,0.00021075,0.00000068,-0.00006
 179,0.00001037,0.00001147,-0.00001436,-0.00000395,0.00004183,0.0000227
 3,0.00001537,0.00000800,0.00010159,-0.00018280,0.00009979,-0.00002789,
 -0.00137031,0.00158785,-0.00026421,0.12514426,0.00207228,0.00306255,0.
 00290811,0.00351842,-0.00207875,-0.00228341,-0.00318844,-0.00313392,0.
 00106781,0.00911256,-0.00348967,-0.00555256,-0.10099137,-0.12508063,0.
 11519524,-0.01029057,-0.00732638,0.01477458,-0.00049260,0.00026462,0.0
 0002954,-0.00032943,0.00028500,-0.00014668,0.00016508,0.00055935,-0.00
 084584,-0.00011268,0.00004177,-0.00023609,-0.00024255,-0.00002320,0.00
 001228,0.00001796,-0.00000576,0.00001607,0.00001657,-0.00002126,-0.000
 03599,-0.00000245,0.00001084,-0.00013069,-0.00000233,0.00005433,0.0000
 1570,0.00284651,-0.00028878,-0.00033174,0.10407334,0.13960732,0.000413
 13,0.00060113,0.00024637,-0.00005234,-0.00061243,-0.00015746,-0.000878
 01,-0.00049174,0.00057294,0.00113984,-0.00044533,-0.00151090,0.1010287
 7,0.11924060,-0.18522578,-0.00679860,-0.00782772,0.01132459,-0.0000137
 3,0.00001091,0.00002110,0.00005995,-0.00009318,0.00004938,-0.00028266,
 0.00046550,0.00070651,0.00013860,-0.00015587,-0.00019788,-0.00002852,-
 0.00002609,-0.00001441,-0.00001859,-0.00002074,0.00001010,-0.00000187,
 -0.00001296,0.00001130,-0.00002992,-0.00000639,0.00001927,-0.00013150,
 0.00006085,-0.00002725,0.00099628,0.00049644,0.00029196,-0.10825149,-0
 .12373996,0.18491058,-0.00103917,0.00266351,-0.00004366,-0.00735166,0.
 00659594,-0.00271642,0.00078094,0.00067586,-0.00030979,-0.00128310,-0.
 00036195,-0.00027935,-0.00950033,-0.01999027,0.00945344,-0.05879080,0.
 00524789,-0.01159729,-0.00073541,-0.00056845,0.00037065,0.00011612,-0.
 00038890,-0.00020297,-0.00005553,0.00017424,0.00009985,0.00003155,-0.0
 0021173,0.00013739,-0.00000719,0.00013774,0.00077501,-0.00089240,-0.00
 022708,-0.00013823,-0.00001099,-0.00038322,-0.00005983,0.00012644,0.00
 024155,0.00045092,-0.00134933,0.00002293,-0.00072123,-0.00199172,0.002
 69179,-0.00421734,0.00024065,-0.00670849,-0.00484811,0.39636420,0.0036
 9052,0.00190414,0.00127074,0.01496140,-0.00874672,0.00093513,-0.002494
 91,-0.00078850,0.00025980,0.00001607,-0.00217052,-0.00055966,-0.013024
 40,-0.02535642,0.01574313,-0.01818821,-0.11988564,0.05192403,-0.001148
 18,-0.00035863,-0.00017902,0.00018376,-0.00026420,0.00000630,-0.000210
 60,0.00037671,0.00022176,0.00009306,-0.00008913,-0.00004389,0.00086148
 ,0.00087693,0.00057323,-0.00131850,-0.00039422,-0.00023596,-0.00036490
 ,-0.00070352,0.00028767,0.00018167,0.00031350,0.00029256,-0.00321575,0
 .00124105,-0.00130027,0.00397708,0.01031582,-0.01451879,-0.00361243,0.
 00011705,-0.00234930,0.32955571,0.90781572,-0.00062007,-0.00164773,0.0
 0329923,-0.00848971,0.00324680,0.00222412,-0.00092415,-0.00607398,0.00
 010503,0.00811400,-0.00500422,-0.00697973,0.00832453,0.02602942,0.0018
 4117,0.00223547,0.05866706,-0.18539667,0.00135008,-0.00092704,0.000147
 69,-0.00051913,0.00003625,-0.00047723,-0.00131741,0.00118692,-0.000441
 18,0.00021922,-0.00079850,-0.00009133,0.00024060,0.00002842,0.00104414
 ,0.00025712,0.00019734,-0.00008010,-0.00016775,0.00017971,-0.00047692,
 0.00058509,-0.00009570,-0.00159214,0.00026606,-0.00029984,0.00009460,0
 .00038902,0.01508469,-0.00969326,-0.00337133,-0.00189238,-0.00413777,-
 0.00582609,-0.16845050,0.46023358,-0.00015393,0.00002167,0.00107593,-0
 .00042614,0.00019767,-0.00136103,-0.00087789,-0.00129064,0.00057697,0.
 00134050,-0.00044516,-0.00091018,0.00332903,0.00186257,0.00195683,0.01
 107073,-0.01698264,0.00477712,0.00004194,0.00058843,-0.00003063,-0.000
 13905,0.00018925,0.00002553,-0.00019071,0.00015093,-0.00003654,0.00013
 623,-0.00007268,-0.00004469,-0.00036041,-0.00033916,-0.00054700,0.0003
 7458,0.00055091,0.00031371,0.00005531,0.00037724,-0.00005936,0.0000275
 1,-0.00015774,-0.00038854,0.00161862,-0.00002748,0.00055634,-0.0007075
 9,0.00092243,0.00023006,-0.00027637,0.00064764,0.00102471,-0.20571044,
 -0.27243088,0.04810667,0.20933050,0.00014787,0.00030885,0.00264979,-0.
 00450711,0.00014361,-0.00032512,-0.00110573,-0.00200194,0.00081956,0.0
 0173508,-0.00048683,-0.00169002,0.00122388,0.00145859,0.01001650,-0.01
 749883,-0.03612006,0.01720130,0.00085143,-0.00009728,-0.00008602,-0.00
 024868,0.00020764,-0.00008457,-0.00018868,0.00028791,-0.00003868,0.000
 14180,-0.00010463,-0.00001575,-0.00042659,-0.00049468,-0.00024770,0.00
 070920,0.00005972,0.00008153,0.00019092,0.00032248,-0.00019701,0.00000
 093,-0.00005602,-0.00032342,0.00106231,-0.00048930,0.00046162,-0.00125
 259,-0.00021720,0.00152590,-0.00035712,-0.00203126,-0.00050283,-0.2689
 3446,-0.64100212,0.11112785,0.33838943,0.72363455,0.00014660,-0.000137
 43,-0.00193244,0.00074282,0.00076972,0.00029249,0.00064848,0.00167125,
 -0.00010818,-0.00154125,0.00106883,0.00166126,-0.00123674,-0.00020080,
 -0.00544865,0.01392797,0.03502694,0.00757861,-0.00022271,0.00018874,0.
 00004325,0.00016267,-0.00002606,0.00012676,0.00031266,-0.00033284,0.00
 007471,-0.00017270,0.00025606,0.00002163,0.00005069,0.00021636,0.00005
 154,-0.00028765,-0.00019567,-0.00002784,-0.00001988,-0.00024657,0.0001
 5412,-0.00006227,0.00009920,0.00048806,0.00032104,0.00002665,-0.000045
 13,-0.00012793,-0.00168541,0.00157612,0.00128280,0.00117790,0.00147327
 ,0.04241708,0.10786300,-0.11819948,-0.02972065,-0.10367689,0.09945885,
 0.00135490,-0.00138967,0.00113249,0.00519529,-0.00237367,-0.00176130,0
 .00082349,0.00117483,0.00056077,-0.00197469,0.00057745,0.00241096,0.01
 337042,-0.01023361,0.00692609,-0.00468056,-0.01005493,-0.02405823,-0.0
 0043208,0.00047773,-0.00015671,-0.00007434,-0.00007524,-0.00010155,0.0
 0055591,-0.00054470,-0.00008767,-0.00016701,0.00059841,-0.00005986,-0.
 00032348,0.00034018,-0.00026632,0.00026329,0.00010167,-0.00002456,-0.0
 0010124,0.00022032,-0.00015491,0.00025426,0.00009900,-0.00067233,0.000
 26075,0.00016724,0.00011067,0.00315652,0.00290221,-0.00207422,0.001615
 93,-0.00055469,-0.00020960,-0.07292085,-0.00145153,-0.03827501,-0.0241
 6283,-0.05237452,-0.02498112,0.18204092,0.00015231,-0.00029029,0.00019
 897,0.00285410,-0.00119234,-0.00284287,-0.00013246,0.00222181,0.000060
 13,-0.00448349,0.00357823,0.00323963,-0.01396139,-0.02420552,0.0304488
 7,-0.00791515,0.01106801,0.00452301,-0.00079365,0.00062249,-0.00004244
 ,0.00021993,-0.00005571,0.00012824,0.00057473,-0.00060426,0.00005118,0
 .00009816,0.00032207,0.00007915,-0.00013425,-0.00018184,-0.00071749,0.
 00047686,0.00015967,0.00006066,0.00012624,0.00036534,-0.00007212,0.000
 26433,-0.00001560,-0.00022953,0.00059726,0.00001926,0.00031639,-0.0001
 6043,0.00006373,0.00106022,0.00270339,0.00268855,0.00503239,-0.0026982
 9,-0.07367718,0.01161718,-0.05846418,-0.05592150,-0.04667301,0.1401040
 8,0.26863520,0.00126567,0.00157232,0.00110396,0.00305214,-0.00108026,-
 0.00229315,-0.00184387,-0.00135396,0.00127037,0.00119494,-0.00033363,-
 0.00104126,0.00859921,0.02940536,-0.03145076,-0.02166159,-0.00027585,-
 0.05019100,-0.00073676,0.00002276,0.00023861,-0.00009369,0.00032676,0.
 00040085,0.00004525,0.00022976,0.00041433,-0.00003689,0.00020587,-0.00
 004015,-0.00033067,0.00009048,-0.00031761,0.00004727,-0.00007828,0.000
 11579,-0.00001762,-0.00020211,0.00028486,-0.00038351,-0.00024183,0.000
 82709,0.00012204,0.00004359,0.00003248,0.00022874,0.00594709,-0.003498
 05,-0.00363108,0.00083800,-0.00392712,-0.03616426,0.01518864,-0.193223
 41,-0.01200253,-0.02337677,0.02405862,0.07819401,-0.05220075,0.3840205
 2,-0.00206929,-0.00244424,-0.00179507,-0.00465763,0.00072605,0.0010042
 6,0.00063968,0.00369554,-0.00116197,-0.01082966,0.01091221,0.00056995,
 -0.09116257,-0.01514013,-0.03773936,-0.00693232,-0.00463526,-0.0186545
 6,0.00072074,-0.00043471,0.00006076,0.00033253,0.00025042,-0.00012819,
 0.00002198,-0.00090682,-0.00011184,0.00134481,-0.00247131,0.00044367,0
 .00018053,-0.00049463,-0.00028521,-0.00007405,0.00010719,-0.00008691,0
 .00032594,0.00007508,-0.00004282,-0.00033929,0.00024341,0.00043184,-0.
 00031122,0.00006593,0.00003907,0.00143094,-0.00457270,0.00130872,0.006
 31358,0.00076619,0.01847266,-0.04869130,-0.04038793,-0.02901708,0.0115
 5781,0.00899797,0.00257734,-0.06294743,-0.00277644,0.00283242,0.628372
 73,-0.00116687,0.00049085,-0.00128125,-0.00396621,0.00021728,0.0022195
 8,0.00194736,-0.00023084,-0.00144093,0.00541728,-0.00558713,0.00087558
 ,0.00196960,-0.07591442,0.04678726,-0.00624013,-0.00411608,-0.01777207
 ,0.00085022,-0.00041975,0.00002153,0.00028701,0.00007854,-0.00010503,-
 0.00059536,-0.00020748,-0.00071204,0.00054243,-0.00183061,0.00021365,-
 0.00001042,-0.00026572,-0.00004800,-0.00035675,-0.00014484,0.00002657,
 0.00011472,-0.00027012,0.00023759,-0.00065873,0.00007921,0.00090988,-0
 .00043509,0.00006991,-0.00024310,-0.00790734,-0.00408882,0.00275011,0.
 00635259,-0.00275014,0.01141053,-0.05431927,-0.05700303,-0.06700615,0.
 01131576,0.02045363,0.01037675,-0.00327121,-0.08864450,0.05382267,0.27
 510407,0.44625636,0.00291283,-0.00045765,0.00685990,0.01090242,-0.0068
 8299,-0.00876093,0.00421462,0.00351231,0.00136413,-0.00966142,0.007423
 35,0.00506077,-0.03140714,0.02909276,-0.20666316,-0.03638642,-0.017709
 32,-0.02098358,-0.00135819,0.00141889,-0.00037268,0.00043027,-0.000752
 65,-0.00107568,0.00104586,-0.00166706,-0.00022822,0.00093138,-0.001813
 63,0.00055222,-0.00019551,-0.00067930,-0.00184550,0.00029102,0.0004251
 8,-0.00026741,0.00058258,0.00082151,-0.00046990,0.00066142,0.00100980,
 -0.00109512,0.00065862,0.00015575,0.00014862,0.00016578,0.00192067,-0.
 00115192,-0.00816304,-0.00027842,-0.00563080,0.01349952,-0.01149015,0.
 05414294,-0.01459805,-0.01341801,-0.01231250,0.00375651,0.05570414,-0.
 15811632,0.33709132,0.12380610,0.66418597,-0.00054485,-0.00087348,-0.0
 0227508,-0.00145961,0.00113334,0.00190036,0.00048315,0.00064667,-0.000
 61012,0.00163068,-0.00360372,-0.00194772,-0.01271366,-0.01128306,-0.02
 801813,0.00448569,0.00236838,-0.00597457,0.00024802,-0.00005133,0.0000
 3737,-0.00004204,-0.00012619,0.00016159,-0.00052455,0.00072255,0.00022
 510,-0.00053130,0.00081945,-0.00012243,0.00007490,0.00020628,0.0003344
 2,0.00002513,-0.00008658,0.00006275,-0.00019075,-0.00006739,0.00007273
 ,0.00005884,-0.00023608,-0.00002633,-0.00002821,0.00002706,0.00003267,
 -0.00198314,-0.00014259,-0.00024116,0.00034060,-0.00032097,-0.00172901
 ,0.01267030,0.00432744,0.01843985,-0.00587741,-0.00655651,-0.00421725,
 -0.04110718,-0.05665165,-0.01867922,-0.42322651,-0.22497365,-0.2753743
 9,0.46821189,-0.00029539,-0.00079689,-0.00170650,-0.00101019,0.0010205
 7,0.00116140,-0.00011900,-0.00015390,0.00024140,0.00140782,-0.00114245
 ,0.00034994,-0.00928605,0.01464018,-0.00873094,0.00194805,0.00314307,0
 .00094485,0.00013796,-0.00012660,0.00002440,-0.00017549,0.00008194,0.0
 0025314,0.00036723,0.00019181,0.00024989,-0.00039730,0.00145141,-0.000
 01848,0.00006392,0.00021007,0.00027026,0.00010507,-0.00000708,0.000034
 07,-0.00012525,-0.00001761,-0.00000252,0.00012210,-0.00019856,-0.00012
 070,-0.00008146,0.00006353,0.00006150,0.00103070,0.00071268,-0.0008956
 5,0.00092287,-0.00046164,-0.00103382,0.00678496,0.00747891,0.02479438,
 -0.00500337,-0.00785413,-0.00556672,-0.06443935,-0.04495561,-0.0285498
 7,-0.22667988,-0.22617229,-0.17014129,0.29472204,0.25289260,-0.0014295
 2,-0.00127023,-0.00358920,-0.00378136,0.00200673,0.00334505,0.00034128
 ,0.00020492,-0.00085681,0.00111313,-0.00250677,-0.00098451,-0.04375727
 ,-0.02067488,-0.02156741,0.00504908,0.00531563,-0.00636212,0.00062344,
 -0.00043582,0.00010967,-0.00018287,0.00020833,0.00045094,-0.00026214,0
 .00047570,0.00017428,-0.00020149,0.00072905,-0.00027435,0.00017613,0.0
 0029698,0.00049127,-0.00003345,-0.00013338,0.00010014,-0.00024266,-0.0
 0020517,0.00016243,-0.00006684,-0.00038420,0.00028495,-0.00038201,0.00
 013347,-0.00000248,-0.00157228,-0.00164923,0.00026592,0.00170137,-0.00
 056147,0.00119199,-0.00007931,0.00456157,-0.00234330,0.00105532,0.0000
 9873,0.00101493,-0.00020814,-0.00974194,0.03133136,-0.27580899,-0.1648
 4923,-0.31334081,0.31794857,0.18838125,0.31039807\\0.,-0.00000338,0.00
 000437,-0.00000685,0.00000549,0.00000589,0.00000192,-0.00000260,0.0000
 0776,-0.00000476,0.00000194,0.00000792,-0.00000415,0.00000485,-0.00000
 609,0.00000063,0.00000584,-0.00000708,-0.00000646,0.00000814,0.0000063
 8,0.00000473,-0.00000809,0.00000893,-0.00000743,0.00000516,0.00000722,
 -0.00000262,0.00000128,0.00000685,0.00000247,-0.00000723,0.00000730,0.
 00000709,-0.00000826,0.00000395,0.00000626,-0.00001065,0.00001159,0.00
 000902,-0.00001027,0.00000189,-0.00000373,0.00000404,0.00000178,-0.000
 00647,0.00000970,-0.00000822,-0.00000634,0.00000849,-0.00000562,0.0000
 0223,0.00000125,-0.00001264,0.00000406,-0.00000192,-0.00001353,0.00000
 426,-0.00000154,-0.00001085,0.00000199,0.00000030,-0.00000925,0.000004
 13,-0.00000254,-0.00000854\\\@


 LAW OF COMPENSATION:
      NO CALCULATION IS EVER A COMPLETE FAILURE; IT 
      CAN ALWAYS SERVE AS A BAD EXAMPLE.

                                           -- ANON
 Job cpu time:       0 days  0 hours 41 minutes 44.5 seconds.
 File lengths (MBytes):  RWF=    182 Int=      0 D2E=      0 Chk=     11 Scr=      1
 Normal termination of Gaussian 09 at Tue Jun 28 23:49:51 2016.
