 Entering Gaussian System, Link 0=g09
 Input=isoprene-b972-dz-smd.gjf
 Output=isoprene-b972-dz-smd.out
 Initial command:
 /n/sw/g09_D.01/g09/l1.exe "/scratch/ekwan_isoprene-b972-dz-smd/Gau-17642.inp" -scrdir="/scratch/ekwan_isoprene-b972-dz-smd/"
 Entering Link 1 = /n/sw/g09_D.01/g09/l1.exe PID=     17643.
  
 Copyright (c) 1988,1990,1992,1993,1995,1998,2003,2009,2013,
            Gaussian, Inc.  All Rights Reserved.
  
 This is part of the Gaussian(R) 09 program.  It is based on
 the Gaussian(R) 03 system (copyright 2003, Gaussian, Inc.),
 the Gaussian(R) 98 system (copyright 1998, Gaussian, Inc.),
 the Gaussian(R) 94 system (copyright 1995, Gaussian, Inc.),
 the Gaussian 92(TM) system (copyright 1992, Gaussian, Inc.),
 the Gaussian 90(TM) system (copyright 1990, Gaussian, Inc.),
 the Gaussian 88(TM) system (copyright 1988, Gaussian, Inc.),
 the Gaussian 86(TM) system (copyright 1986, Carnegie Mellon
 University), and the Gaussian 82(TM) system (copyright 1983,
 Carnegie Mellon University). Gaussian is a federally registered
 trademark of Gaussian, Inc.
  
 This software contains proprietary and confidential information,
 including trade secrets, belonging to Gaussian, Inc.
  
 This software is provided under written license and may be
 used, copied, transmitted, or stored only in accord with that
 written license.
  
 The following legend is applicable only to US Government
 contracts under FAR:
  
                    RESTRICTED RIGHTS LEGEND
  
 Use, reproduction and disclosure by the US Government is
 subject to restrictions as set forth in subparagraphs (a)
 and (c) of the Commercial Computer Software - Restricted
 Rights clause in FAR 52.227-19.
  
 Gaussian, Inc.
 340 Quinnipiac St., Bldg. 40, Wallingford CT 06492
  
  
 ---------------------------------------------------------------
 Warning -- This program may not be used in any manner that
 competes with the business of Gaussian, Inc. or will provide
 assistance to any competitor of Gaussian, Inc.  The licensee
 of this program is prohibited from giving any competitor of
 Gaussian, Inc. access to this program.  By using this program,
 the user acknowledges that Gaussian, Inc. is engaged in the
 business of creating and licensing software in the field of
 computational chemistry and represents and warrants to the
 licensee that it is not a competitor of Gaussian, Inc. and that
 it will not use this program in any manner prohibited above.
 ---------------------------------------------------------------
  

 Cite this work as:
 Gaussian 09, Revision D.01,
 M. J. Frisch, G. W. Trucks, H. B. Schlegel, G. E. Scuseria, 
 M. A. Robb, J. R. Cheeseman, G. Scalmani, V. Barone, B. Mennucci, 
 G. A. Petersson, H. Nakatsuji, M. Caricato, X. Li, H. P. Hratchian, 
 A. F. Izmaylov, J. Bloino, G. Zheng, J. L. Sonnenberg, M. Hada, 
 M. Ehara, K. Toyota, R. Fukuda, J. Hasegawa, M. Ishida, T. Nakajima, 
 Y. Honda, O. Kitao, H. Nakai, T. Vreven, J. A. Montgomery, Jr., 
 J. E. Peralta, F. Ogliaro, M. Bearpark, J. J. Heyd, E. Brothers, 
 K. N. Kudin, V. N. Staroverov, T. Keith, R. Kobayashi, J. Normand, 
 K. Raghavachari, A. Rendell, J. C. Burant, S. S. Iyengar, J. Tomasi, 
 M. Cossi, N. Rega, J. M. Millam, M. Klene, J. E. Knox, J. B. Cross, 
 V. Bakken, C. Adamo, J. Jaramillo, R. Gomperts, R. E. Stratmann, 
 O. Yazyev, A. J. Austin, R. Cammi, C. Pomelli, J. W. Ochterski, 
 R. L. Martin, K. Morokuma, V. G. Zakrzewski, G. A. Voth, 
 P. Salvador, J. J. Dannenberg, S. Dapprich, A. D. Daniels, 
 O. Farkas, J. B. Foresman, J. V. Ortiz, J. Cioslowski, 
 and D. J. Fox, Gaussian, Inc., Wallingford CT, 2013.
 
 ******************************************
 Gaussian 09:  EM64L-G09RevD.01 24-Apr-2013
                28-Jun-2016 
 ******************************************
 %chk=checkpoint.chk
 %nprocshared=4
 Will use up to    4 processors via shared memory.
 %mem=2GB
 ---------------------------------------------------------------------
 #p opt freq=noraman pop=none b972 cc-pVDZ scrf=(solvent=o-xylene,smd)
 ---------------------------------------------------------------------
 1/14=-1,18=20,19=15,26=3,38=1/1,3;
 2/9=110,12=2,17=6,18=5,40=1/2;
 3/5=16,11=2,16=1,25=1,30=1,70=32201,71=1,72=158,74=-21/1,2,3;
 4//1;
 5/5=2,38=5,53=158/2;
 7//1,2,3,16;
 1/14=-1,18=20,19=15,26=3/3(2);
 2/9=110/2;
 99//99;
 2/9=110/2;
 3/5=16,11=2,16=1,25=1,30=1,70=32205,71=1,72=158,74=-21/1,2,3;
 4/5=5,16=3,69=1/1;
 5/5=2,38=5,53=158/2;
 7//1,2,3,16;
 1/14=-1,18=20,19=15,26=3/3(-5);
 2/9=110/2;
 99/9=1/99;
 Leave Link    1 at Tue Jun 28 22:34:25 2016, MaxMem=   268435456 cpu:         0.6
 (Enter /n/sw/g09_D.01/g09/l101.exe)
 -----
 title
 -----
 Symbolic Z-matrix:
 Charge =  0 Multiplicity = 1
 1                    -0.68433  -2.19061   0. 
 6                     0.37506  -1.94986   0. 
 6                     0.82657  -0.68795   0. 
 1                     1.06002  -2.79261   0. 
 6                     0.        0.52576   0. 
 1                     1.90311  -0.51674   0. 
 6                     0.58839   1.73418   0. 
 6                    -1.50208   0.37878   0. 
 1                     0.01013   2.654     0. 
 1                     1.67046   1.84021   0. 
 1                    -1.99548   1.35488   0. 
 1                    -1.84578  -0.17729   0.88145 
 1                    -1.84578  -0.17729  -0.88145 
 
 NAtoms=     13 NQM=       13 NQMF=       0 NMMI=      0 NMMIF=      0
                NMic=       0 NMicF=      0.
                    Isotopes and Nuclear Properties:
 (Nuclear quadrupole moments (NQMom) in fm**2, nuclear magnetic moments (NMagM)
  in nuclear magnetons)

  Atom         1           2           3           4           5           6           7           8           9          10
 IAtWgt=           1          12          12           1          12           1          12          12           1           1
 AtmWgt=   1.0078250  12.0000000  12.0000000   1.0078250  12.0000000   1.0078250  12.0000000  12.0000000   1.0078250   1.0078250
 NucSpn=           1           0           0           1           0           1           0           0           1           1
 AtZEff=   0.0000000   0.0000000   0.0000000   0.0000000   0.0000000   0.0000000   0.0000000   0.0000000   0.0000000   0.0000000
 NQMom=    0.0000000   0.0000000   0.0000000   0.0000000   0.0000000   0.0000000   0.0000000   0.0000000   0.0000000   0.0000000
 NMagM=    2.7928460   0.0000000   0.0000000   2.7928460   0.0000000   2.7928460   0.0000000   0.0000000   2.7928460   2.7928460
 AtZNuc=   1.0000000   6.0000000   6.0000000   1.0000000   6.0000000   1.0000000   6.0000000   6.0000000   1.0000000   1.0000000

  Atom        11          12          13
 IAtWgt=           1           1           1
 AtmWgt=   1.0078250   1.0078250   1.0078250
 NucSpn=           1           1           1
 AtZEff=   0.0000000   0.0000000   0.0000000
 NQMom=    0.0000000   0.0000000   0.0000000
 NMagM=    2.7928460   2.7928460   2.7928460
 AtZNuc=   1.0000000   1.0000000   1.0000000
 Leave Link  101 at Tue Jun 28 22:34:25 2016, MaxMem=   268435456 cpu:         1.3
 (Enter /n/sw/g09_D.01/g09/l103.exe)

 GradGradGradGradGradGradGradGradGradGradGradGradGradGradGradGradGradGrad
 Berny optimization.
 Initialization pass.
                           ----------------------------
                           !    Initial Parameters    !
                           ! (Angstroms and Degrees)  !
 --------------------------                            --------------------------
 ! Name  Definition              Value          Derivative Info.                !
 --------------------------------------------------------------------------------
 ! R1    R(1,2)                  1.0864         estimate D2E/DX2                !
 ! R2    R(2,3)                  1.3403         estimate D2E/DX2                !
 ! R3    R(2,4)                  1.086          estimate D2E/DX2                !
 ! R4    R(3,5)                  1.4684         estimate D2E/DX2                !
 ! R5    R(3,6)                  1.0901         estimate D2E/DX2                !
 ! R6    R(5,7)                  1.3441         estimate D2E/DX2                !
 ! R7    R(5,8)                  1.5093         estimate D2E/DX2                !
 ! R8    R(7,9)                  1.0865         estimate D2E/DX2                !
 ! R9    R(7,10)                 1.0873         estimate D2E/DX2                !
 ! R10   R(8,11)                 1.0937         estimate D2E/DX2                !
 ! R11   R(8,12)                 1.0974         estimate D2E/DX2                !
 ! R12   R(8,13)                 1.0974         estimate D2E/DX2                !
 ! A1    A(1,2,3)              122.4904         estimate D2E/DX2                !
 ! A2    A(1,2,4)              116.2999         estimate D2E/DX2                !
 ! A3    A(3,2,4)              121.2097         estimate D2E/DX2                !
 ! A4    A(2,3,5)              126.0569         estimate D2E/DX2                !
 ! A5    A(2,3,6)              118.7237         estimate D2E/DX2                !
 ! A6    A(5,3,6)              115.2194         estimate D2E/DX2                !
 ! A7    A(3,5,7)              119.7822         estimate D2E/DX2                !
 ! A8    A(3,5,8)              118.6673         estimate D2E/DX2                !
 ! A9    A(7,5,8)              121.5505         estimate D2E/DX2                !
 ! A10   A(5,7,9)              121.882          estimate D2E/DX2                !
 ! A11   A(5,7,10)             121.5583         estimate D2E/DX2                !
 ! A12   A(9,7,10)             116.5597         estimate D2E/DX2                !
 ! A13   A(5,8,11)             111.227          estimate D2E/DX2                !
 ! A14   A(5,8,12)             111.1648         estimate D2E/DX2                !
 ! A15   A(5,8,13)             111.1648         estimate D2E/DX2                !
 ! A16   A(11,8,12)            108.1155         estimate D2E/DX2                !
 ! A17   A(11,8,13)            108.1155         estimate D2E/DX2                !
 ! A18   A(12,8,13)            106.8761         estimate D2E/DX2                !
 ! D1    D(1,2,3,5)              0.0            estimate D2E/DX2                !
 ! D2    D(1,2,3,6)            180.0            estimate D2E/DX2                !
 ! D3    D(4,2,3,5)            180.0            estimate D2E/DX2                !
 ! D4    D(4,2,3,6)              0.0            estimate D2E/DX2                !
 ! D5    D(2,3,5,7)            180.0            estimate D2E/DX2                !
 ! D6    D(2,3,5,8)              0.0            estimate D2E/DX2                !
 ! D7    D(6,3,5,7)              0.0            estimate D2E/DX2                !
 ! D8    D(6,3,5,8)            180.0            estimate D2E/DX2                !
 ! D9    D(3,5,7,9)            180.0            estimate D2E/DX2                !
 ! D10   D(3,5,7,10)             0.0            estimate D2E/DX2                !
 ! D11   D(8,5,7,9)              0.0            estimate D2E/DX2                !
 ! D12   D(8,5,7,10)           180.0            estimate D2E/DX2                !
 ! D13   D(3,5,8,11)           180.0            estimate D2E/DX2                !
 ! D14   D(3,5,8,12)            59.4642         estimate D2E/DX2                !
 ! D15   D(3,5,8,13)           -59.4642         estimate D2E/DX2                !
 ! D16   D(7,5,8,11)             0.0            estimate D2E/DX2                !
 ! D17   D(7,5,8,12)          -120.5358         estimate D2E/DX2                !
 ! D18   D(7,5,8,13)           120.5358         estimate D2E/DX2                !
 --------------------------------------------------------------------------------
 Trust Radius=3.00D-01 FncErr=1.00D-07 GrdErr=1.00D-06
 Number of steps in this run=     58 maximum allowed number of steps=    100.
 GradGradGradGradGradGradGradGradGradGradGradGradGradGradGradGradGradGrad

 Leave Link  103 at Tue Jun 28 22:34:25 2016, MaxMem=   268435456 cpu:         0.1
 (Enter /n/sw/g09_D.01/g09/l202.exe)
                          Input orientation:                          
 ---------------------------------------------------------------------
 Center     Atomic      Atomic             Coordinates (Angstroms)
 Number     Number       Type             X           Y           Z
 ---------------------------------------------------------------------
      1          1           0       -0.684329   -2.190611    0.000000
      2          6           0        0.375061   -1.949860    0.000000
      3          6           0        0.826571   -0.687950    0.000000
      4          1           0        1.060022   -2.792610    0.000000
      5          6           0        0.000000    0.525760    0.000000
      6          1           0        1.903111   -0.516739    0.000000
      7          6           0        0.588389    1.734180    0.000000
      8          6           0       -1.502080    0.378779    0.000000
      9          1           0        0.010129    2.654000    0.000000
     10          1           0        1.670459    1.840211    0.000000
     11          1           0       -1.995480    1.354879    0.000000
     12          1           0       -1.845780   -0.177291    0.881450
     13          1           0       -1.845780   -0.177291   -0.881450
 ---------------------------------------------------------------------
                    Distance matrix (angstroms):
                    1          2          3          4          5
     1  H    0.000000
     2  C    1.086401   0.000000
     3  C    2.130917   1.340253   0.000000
     4  H    1.845308   1.086001   2.117568   0.000000
     5  C    2.801246   2.503870   1.468438   3.483565   0.000000
     6  H    3.081671   2.094940   1.090070   2.427012   2.169939
     7  C    4.125990   3.690211   2.433813   4.551293   1.344054
     8  C    2.696383   2.991023   2.561352   4.077018   1.509254
     9  H    4.894132   4.618301   3.440234   5.546876   2.128264
    10  H    4.668249   4.005333   2.665285   4.672865   2.125609
    11  H    3.780161   4.067034   3.483837   5.151481   2.160875
    12  H    2.485836   2.975078   2.859928   4.007559   2.162901
    13  H    2.485836   2.975078   2.859928   4.007559   2.162901
                    6          7          8          9         10
     6  H    0.000000
     7  C    2.606747   0.000000
     8  C    3.520977   2.491420   0.000000
     9  H    3.692826   1.086487   2.731924   0.000000
    10  H    2.368405   1.087253   3.492963   1.849040   0.000000
    11  H    4.324577   2.611561   1.093716   2.389599   3.697926
    12  H    3.866053   3.218051   1.097405   3.498223   4.148639
    13  H    3.866053   3.218051   1.097405   3.498223   4.148639
                   11         12         13
    11  H    0.000000
    12  H    1.773953   0.000000
    13  H    1.773953   1.762900   0.000000
 Stoichiometry    C5H8
 Framework group  CS[SG(C5H6),X(H2)]
 Deg. of freedom    22
 Full point group                 CS      NOp   2
 Largest Abelian subgroup         CS      NOp   2
 Largest concise Abelian subgroup CS      NOp   2
                         Standard orientation:                         
 ---------------------------------------------------------------------
 Center     Atomic      Atomic             Coordinates (Angstroms)
 Number     Number       Type             X           Y           Z
 ---------------------------------------------------------------------
      1          1           0       -0.684329   -2.190611    0.000000
      2          6           0        0.375061   -1.949860    0.000000
      3          6           0        0.826571   -0.687950    0.000000
      4          1           0        1.060022   -2.792610    0.000000
      5          6           0        0.000000    0.525760    0.000000
      6          1           0        1.903111   -0.516739    0.000000
      7          6           0        0.588389    1.734180    0.000000
      8          6           0       -1.502080    0.378779    0.000000
      9          1           0        0.010129    2.654000    0.000000
     10          1           0        1.670459    1.840211    0.000000
     11          1           0       -1.995480    1.354879    0.000000
     12          1           0       -1.845780   -0.177291    0.881450
     13          1           0       -1.845780   -0.177291   -0.881450
 ---------------------------------------------------------------------
 Rotational constants (GHZ):      8.5152198      4.1553107      2.8417562
 Leave Link  202 at Tue Jun 28 22:34:25 2016, MaxMem=   268435456 cpu:         0.0
 (Enter /n/sw/g09_D.01/g09/l301.exe)
 Standard basis: CC-pVDZ (5D, 7F)
 Ernie: Thresh=  0.10000D-02 Tol=  0.10000D-05 Strict=F.
 Ernie:  10 primitive shells out of 150 were deleted.
 There are    84 symmetry adapted cartesian basis functions of A'  symmetry.
 There are    31 symmetry adapted cartesian basis functions of A"  symmetry.
 There are    79 symmetry adapted basis functions of A'  symmetry.
 There are    31 symmetry adapted basis functions of A"  symmetry.
   110 basis functions,   221 primitive gaussians,   115 cartesian basis functions
    19 alpha electrons       19 beta electrons
       nuclear repulsion energy       160.0816687246 Hartrees.
 IExCor= 1715 DFT=T Ex+Corr=B972 ExCW=0 ScaHFX=  0.210000
 ScaDFX=  1.000000  1.000000  1.000000  1.000000 ScalE2=  1.000000  1.000000
 IRadAn=      0 IRanWt=     -1 IRanGd=            0 ICorTp=0 IEmpDi=  4
 NAtoms=   13 NActive=   13 NUniq=   12 SFac= 1.17D+00 NAtFMM=   60 NAOKFM=F Big=F
 Integral buffers will be    131072 words long.
 Raffenetti 2 integral format.
 Two-electron integral symmetry is turned on.
 ------------------------------------------------------------------------------
 Polarizable Continuum Model (PCM)
 =================================
 Model                : PCM (using non-symmetric T matrix).
 Atomic radii         : SMD-Coulomb.
 Polarization charges : Total charges.
 Charge compensation  : None.
 Solution method      : On-the-fly selection.
 Cavity type          : VdW (van der Waals Surface) (Alpha=1.000).
 Cavity algorithm     : GePol (No added spheres)
                        Default sphere list used, NSphG=   13.
                        Lebedev-Laikov grids with approx.  5.0 points / Ang**2.
                        Smoothing algorithm: Karplus/York (Gamma=1.0000).
                        Polarization charges: spherical gaussians, with
                                              point-specific exponents (IZeta= 3).
                        Self-potential: point-specific (ISelfS= 7).
                        Self-field    : sphere-specific E.n sum rule (ISelfD= 2).
 1st derivatives      : Analytical E(r).r(x)/FMM algorithm (CHGder, D1EAlg=3).
                        Cavity 1st derivative terms included.
 Solvent              : o-Xylene, Eps=   2.545400 Eps(inf)=   2.266530
 ------------------------------------------------------------------------------
 Spheres list:
 ISph  on   Nord     Re0    Alpha      Xe            Ye            Ze
    1   H      1    1.2000  1.000     -0.684329     -2.190611      0.000000
    2   C      2    1.8500  1.000      0.375061     -1.949860      0.000000
    3   C      3    1.8500  1.000      0.826571     -0.687950      0.000000
    4   H      4    1.2000  1.000      1.060022     -2.792610      0.000000
    5   C      5    1.8500  1.000      0.000000      0.525760      0.000000
    6   H      6    1.2000  1.000      1.903111     -0.516739      0.000000
    7   C      7    1.8500  1.000      0.588389      1.734180      0.000000
    8   C      8    1.8500  1.000     -1.502080      0.378779      0.000000
    9   H      9    1.2000  1.000      0.010129      2.654000      0.000000
   10   H     10    1.2000  1.000      1.670459      1.840211      0.000000
   11   H     11    1.2000  1.000     -1.995480      1.354879      0.000000
   12   H     12    1.2000  1.000     -1.845780     -0.177291      0.881450
   13   H     13    1.2000  1.000     -1.845780     -0.177291     -0.881450
 ------------------------------------------------------------------------------
 GePol: Number of generator spheres                  =      13
 GePol: Total number of spheres                      =      13
 GePol: Number of exposed spheres                    =      13 (100.00%)
 GePol: Number of points                             =    1041
 GePol: Average weight of points                     =       0.11
 GePol: Minimum weight of points                     =   0.16D-04
 GePol: Maximum weight of points                     =    0.17992
 GePol: Number of points with low weight             =      36
 GePol: Fraction of low-weight points (<1% of avg)   =       3.46%
 GePol: Cavity surface area                          =    119.138 Ang**2
 GePol: Cavity volume                                =     93.123 Ang**3
 ------------------------------------------------------------------------------
 Atomic radii for non-electrostatic terms: SMD-CDS.
 ------------------------------------------------------------------------------
 PCM non-electrostatic energy =        -0.0017167045 Hartrees.
 Nuclear repulsion after PCM non-electrostatic terms =      160.0799520201 Hartrees.
 Leave Link  301 at Tue Jun 28 22:34:25 2016, MaxMem=   268435456 cpu:         0.4
 (Enter /n/sw/g09_D.01/g09/l302.exe)
 NPDir=0 NMtPBC=     1 NCelOv=     1 NCel=       1 NClECP=     1 NCelD=      1
         NCelK=      1 NCelE2=     1 NClLst=     1 CellRange=     0.0.
 One-electron integrals computed using PRISM.
 One-electron integral symmetry used in STVInt
 NBasis=   110 RedAO= T EigKep=  2.33D-03  NBF=    79    31
 NBsUse=   110 1.00D-06 EigRej= -1.00D+00 NBFU=    79    31
 Precomputing XC quadrature grid using
 IXCGrd= 4 IRadAn=           0 IRanWt=          -1 IRanGd=           0 AccXCQ= 0.00D+00.
 Generated NRdTot=       0 NPtTot=           0 NUsed=           0 NTot=          32
 NSgBfM=   115   115   115   115   115 MxSgAt=    13 MxSgA2=    13.
 Leave Link  302 at Tue Jun 28 22:34:26 2016, MaxMem=   268435456 cpu:         1.4
 (Enter /n/sw/g09_D.01/g09/l303.exe)
 DipDrv:  MaxL=1.
 Leave Link  303 at Tue Jun 28 22:34:26 2016, MaxMem=   268435456 cpu:         0.6
 (Enter /n/sw/g09_D.01/g09/l401.exe)
 ExpMin= 1.22D-01 ExpMax= 6.67D+03 ExpMxC= 2.28D+02 IAcc=1 IRadAn=         1 AccDes= 0.00D+00
 Harris functional with IExCor= 1715 and IRadAn=       1 diagonalized for initial guess.
 HarFok:  IExCor= 1715 AccDes= 0.00D+00 IRadAn=         1 IDoV= 1 UseB2=F ITyADJ=14
 ICtDFT=  3500011 ScaDFX=  1.000000  1.000000  1.000000  1.000000
 FoFCou: FMM=F IPFlag=           0 FMFlag=      100000 FMFlg1=           0
         NFxFlg=           0 DoJE=T BraDBF=F KetDBF=T FulRan=T
         wScrn=  0.000000 ICntrl=     500 IOpCl=  0 I1Cent=   200000004 NGrid=           0
         NMat0=    1 NMatS0=      1 NMatT0=    0 NMatD0=    1 NMtDS0=    0 NMtDT0=    0
 Petite list used in FoFCou.
 Harris En= -189.324853477974    
 JPrj=0 DoOrth=F DoCkMO=F.
 Initial guess orbital symmetries:
       Occupied  (A') (A') (A') (A') (A') (A') (A') (A') (A') (A')
                 (A') (A') (A") (A') (A') (A') (A') (A") (A")
       Virtual   (A") (A") (A') (A') (A') (A') (A") (A') (A') (A')
                 (A') (A') (A') (A') (A') (A') (A") (A') (A') (A")
                 (A') (A") (A') (A') (A") (A') (A") (A') (A") (A')
                 (A') (A') (A') (A') (A') (A") (A") (A') (A") (A')
                 (A') (A") (A") (A') (A') (A') (A') (A") (A') (A')
                 (A") (A") (A') (A') (A') (A') (A') (A") (A") (A')
                 (A') (A") (A') (A") (A') (A') (A") (A') (A") (A")
                 (A') (A') (A") (A') (A') (A") (A') (A') (A") (A')
                 (A') (A') (A') (A') (A') (A") (A') (A') (A') (A')
                 (A')
 The electronic state of the initial guess is 1-A'.
 Leave Link  401 at Tue Jun 28 22:34:27 2016, MaxMem=   268435456 cpu:         3.3
 (Enter /n/sw/g09_D.01/g09/l502.exe)
 Closed shell SCF:
 Using DIIS extrapolation, IDIIS=  1040.
 Integral symmetry usage will be decided dynamically.
 Keep R1 ints in memory in symmetry-blocked form, NReq=28397239.
 IVT=       59963 IEndB=       59963 NGot=   268435456 MDV=   258676893
 LenX=   258676893 LenY=   258663227
 Requested convergence on RMS density matrix=1.00D-08 within 128 cycles.
 Requested convergence on MAX density matrix=1.00D-06.
 Requested convergence on             energy=1.00D-06.
 No special actions if energy rises.
 FoFCou: FMM=F IPFlag=           0 FMFlag=           0 FMFlg1=           0
         NFxFlg=           0 DoJE=F BraDBF=F KetDBF=F FulRan=T
         wScrn=  0.000000 ICntrl=     600 IOpCl=  0 I1Cent=           0 NGrid=           0
         NMat0=    1 NMatS0=   6105 NMatT0=    0 NMatD0=    1 NMtDS0=    0 NMtDT0=    0
 Petite list used in FoFCou.

 Cycle   1  Pass 1  IDiag  1:
 Inv3:  Mode=1 IEnd=     3251043.
 Iteration    1 A*A^-1 deviation from unit magnitude is 5.11D-15 for    400.
 Iteration    1 A*A^-1 deviation from orthogonality  is 3.84D-15 for    715    442.
 Iteration    1 A^-1*A deviation from unit magnitude is 5.55D-15 for    220.
 Iteration    1 A^-1*A deviation from orthogonality  is 2.95D-14 for    425    378.
 E= -195.215693541367    
 DIIS: error= 2.47D-02 at cycle   1 NSaved=   1.
 NSaved= 1 IEnMin= 1 EnMin= -195.215693541367     IErMin= 1 ErrMin= 2.47D-02
 ErrMax= 2.47D-02  0.00D+00 EMaxC= 1.00D-01 BMatC= 6.60D-02 BMatP= 6.60D-02
 IDIUse=3 WtCom= 7.53D-01 WtEn= 2.47D-01
 Coeff-Com:  0.100D+01
 Coeff-En:   0.100D+01
 Coeff:      0.100D+01
 Gap=     0.205 Goal=   None    Shift=    0.000
 GapD=    0.205 DampG=1.000 DampE=0.500 DampFc=0.5000 IDamp=-1.
 Damping current iteration by 5.00D-01
 RMSDP=2.68D-03 MaxDP=5.47D-02              OVMax= 6.73D-02

 Cycle   2  Pass 1  IDiag  1:
 E= -195.235255180642     Delta-E=       -0.019561639276 Rises=F Damp=T
 DIIS: error= 1.40D-02 at cycle   2 NSaved=   2.
 NSaved= 2 IEnMin= 2 EnMin= -195.235255180642     IErMin= 2 ErrMin= 1.40D-02
 ErrMax= 1.40D-02  0.00D+00 EMaxC= 1.00D-01 BMatC= 1.23D-02 BMatP= 6.60D-02
 IDIUse=3 WtCom= 8.60D-01 WtEn= 1.40D-01
 Coeff-Com: -0.298D+00 0.130D+01
 Coeff-En:   0.000D+00 0.100D+01
 Coeff:     -0.256D+00 0.126D+01
 Gap=     0.210 Goal=   None    Shift=    0.000
 RMSDP=8.91D-04 MaxDP=1.25D-02 DE=-1.96D-02 OVMax= 4.48D-02

 Cycle   3  Pass 1  IDiag  1:
 E= -195.252384209787     Delta-E=       -0.017129029145 Rises=F Damp=F
 DIIS: error= 4.05D-03 at cycle   3 NSaved=   3.
 NSaved= 3 IEnMin= 3 EnMin= -195.252384209787     IErMin= 3 ErrMin= 4.05D-03
 ErrMax= 4.05D-03  0.00D+00 EMaxC= 1.00D-01 BMatC= 2.49D-03 BMatP= 1.23D-02
 IDIUse=3 WtCom= 9.59D-01 WtEn= 4.05D-02
 Coeff-Com: -0.222D+00 0.467D+00 0.755D+00
 Coeff-En:   0.000D+00 0.000D+00 0.100D+01
 Coeff:     -0.213D+00 0.448D+00 0.765D+00
 Gap=     0.209 Goal=   None    Shift=    0.000
 RMSDP=4.64D-04 MaxDP=1.51D-02 DE=-1.71D-02 OVMax= 2.28D-02

 Cycle   4  Pass 1  IDiag  1:
 E= -195.254283316896     Delta-E=       -0.001899107108 Rises=F Damp=F
 DIIS: error= 2.94D-03 at cycle   4 NSaved=   4.
 NSaved= 4 IEnMin= 4 EnMin= -195.254283316896     IErMin= 4 ErrMin= 2.94D-03
 ErrMax= 2.94D-03  0.00D+00 EMaxC= 1.00D-01 BMatC= 5.97D-04 BMatP= 2.49D-03
 IDIUse=3 WtCom= 9.71D-01 WtEn= 2.94D-02
 Coeff-Com: -0.125D+00 0.250D+00 0.480D+00 0.395D+00
 Coeff-En:   0.000D+00 0.000D+00 0.145D+00 0.855D+00
 Coeff:     -0.122D+00 0.243D+00 0.470D+00 0.409D+00
 Gap=     0.209 Goal=   None    Shift=    0.000
 RMSDP=1.94D-04 MaxDP=5.75D-03 DE=-1.90D-03 OVMax= 9.84D-03

 Cycle   5  Pass 1  IDiag  1:
 E= -195.254919692131     Delta-E=       -0.000636375236 Rises=F Damp=F
 DIIS: error= 2.31D-04 at cycle   5 NSaved=   5.
 NSaved= 5 IEnMin= 5 EnMin= -195.254919692131     IErMin= 5 ErrMin= 2.31D-04
 ErrMax= 2.31D-04  0.00D+00 EMaxC= 1.00D-01 BMatC= 5.27D-06 BMatP= 5.97D-04
 IDIUse=3 WtCom= 9.98D-01 WtEn= 2.31D-03
 Coeff-Com: -0.457D-01 0.905D-01 0.181D+00 0.181D+00 0.594D+00
 Coeff-En:   0.000D+00 0.000D+00 0.000D+00 0.000D+00 0.100D+01
 Coeff:     -0.456D-01 0.903D-01 0.180D+00 0.181D+00 0.595D+00
 Gap=     0.209 Goal=   None    Shift=    0.000
 RMSDP=1.86D-05 MaxDP=4.24D-04 DE=-6.36D-04 OVMax= 7.28D-04

 Cycle   6  Pass 1  IDiag  1:
 E= -195.254924869473     Delta-E=       -0.000005177342 Rises=F Damp=F
 DIIS: error= 4.85D-05 at cycle   6 NSaved=   6.
 NSaved= 6 IEnMin= 6 EnMin= -195.254924869473     IErMin= 6 ErrMin= 4.85D-05
 ErrMax= 4.85D-05  0.00D+00 EMaxC= 1.00D-01 BMatC= 2.47D-07 BMatP= 5.27D-06
 IDIUse=1 WtCom= 1.00D+00 WtEn= 0.00D+00
 Coeff-Com: -0.952D-02 0.185D-01 0.393D-01 0.438D-01 0.243D+00 0.665D+00
 Coeff:     -0.952D-02 0.185D-01 0.393D-01 0.438D-01 0.243D+00 0.665D+00
 Gap=     0.209 Goal=   None    Shift=    0.000
 RMSDP=4.76D-06 MaxDP=9.74D-05 DE=-5.18D-06 OVMax= 1.48D-04

 Cycle   7  Pass 1  IDiag  1:
 E= -195.254925122976     Delta-E=       -0.000000253503 Rises=F Damp=F
 DIIS: error= 8.29D-06 at cycle   7 NSaved=   7.
 NSaved= 7 IEnMin= 7 EnMin= -195.254925122976     IErMin= 7 ErrMin= 8.29D-06
 ErrMax= 8.29D-06  0.00D+00 EMaxC= 1.00D-01 BMatC= 1.21D-08 BMatP= 2.47D-07
 IDIUse=1 WtCom= 1.00D+00 WtEn= 0.00D+00
 Coeff-Com:  0.457D-03-0.101D-02-0.108D-02-0.129D-03 0.318D-01 0.220D+00
 Coeff-Com:  0.750D+00
 Coeff:      0.457D-03-0.101D-02-0.108D-02-0.129D-03 0.318D-01 0.220D+00
 Coeff:      0.750D+00
 Gap=     0.209 Goal=   None    Shift=    0.000
 RMSDP=1.19D-06 MaxDP=3.38D-05 DE=-2.54D-07 OVMax= 7.50D-05

 Cycle   8  Pass 1  IDiag  1:
 E= -195.254925131793     Delta-E=       -0.000000008816 Rises=F Damp=F
 DIIS: error= 6.60D-06 at cycle   8 NSaved=   8.
 NSaved= 8 IEnMin= 8 EnMin= -195.254925131793     IErMin= 8 ErrMin= 6.60D-06
 ErrMax= 6.60D-06  0.00D+00 EMaxC= 1.00D-01 BMatC= 3.97D-09 BMatP= 1.21D-08
 IDIUse=1 WtCom= 1.00D+00 WtEn= 0.00D+00
 Coeff-Com:  0.874D-03-0.177D-02-0.309D-02-0.282D-02 0.443D-02 0.933D-01
 Coeff-Com:  0.458D+00 0.451D+00
 Coeff:      0.874D-03-0.177D-02-0.309D-02-0.282D-02 0.443D-02 0.933D-01
 Coeff:      0.458D+00 0.451D+00
 Gap=     0.209 Goal=   None    Shift=    0.000
 RMSDP=5.16D-07 MaxDP=1.94D-05 DE=-8.82D-09 OVMax= 4.08D-05

 Cycle   9  Pass 1  IDiag  1:
 E= -195.254925136007     Delta-E=       -0.000000004214 Rises=F Damp=F
 DIIS: error= 9.18D-07 at cycle   9 NSaved=   9.
 NSaved= 9 IEnMin= 9 EnMin= -195.254925136007     IErMin= 9 ErrMin= 9.18D-07
 ErrMax= 9.18D-07  0.00D+00 EMaxC= 1.00D-01 BMatC= 7.24D-11 BMatP= 3.97D-09
 IDIUse=1 WtCom= 1.00D+00 WtEn= 0.00D+00
 Coeff-Com:  0.312D-03-0.626D-03-0.114D-02-0.110D-02-0.507D-03 0.211D-01
 Coeff-Com:  0.131D+00 0.181D+00 0.670D+00
 Coeff:      0.312D-03-0.626D-03-0.114D-02-0.110D-02-0.507D-03 0.211D-01
 Coeff:      0.131D+00 0.181D+00 0.670D+00
 Gap=     0.209 Goal=   None    Shift=    0.000
 RMSDP=9.01D-08 MaxDP=2.23D-06 DE=-4.21D-09 OVMax= 5.51D-06

 Cycle  10  Pass 1  IDiag  1:
 E= -195.254925136086     Delta-E=       -0.000000000079 Rises=F Damp=F
 DIIS: error= 2.44D-07 at cycle  10 NSaved=  10.
 NSaved=10 IEnMin=10 EnMin= -195.254925136086     IErMin=10 ErrMin= 2.44D-07
 ErrMax= 2.44D-07  0.00D+00 EMaxC= 1.00D-01 BMatC= 7.44D-12 BMatP= 7.24D-11
 IDIUse=1 WtCom= 1.00D+00 WtEn= 0.00D+00
 Coeff-Com:  0.821D-04-0.163D-03-0.303D-03-0.300D-03-0.419D-03 0.365D-02
 Coeff-Com:  0.311D-01 0.532D-01 0.315D+00 0.598D+00
 Coeff:      0.821D-04-0.163D-03-0.303D-03-0.300D-03-0.419D-03 0.365D-02
 Coeff:      0.311D-01 0.532D-01 0.315D+00 0.598D+00
 Gap=     0.209 Goal=   None    Shift=    0.000
 RMSDP=2.67D-08 MaxDP=5.18D-07 DE=-7.87D-11 OVMax= 1.27D-06

 Cycle  11  Pass 1  IDiag  1:
 E= -195.254925136094     Delta-E=       -0.000000000009 Rises=F Damp=F
 DIIS: error= 4.51D-08 at cycle  11 NSaved=  11.
 NSaved=11 IEnMin=11 EnMin= -195.254925136094     IErMin=11 ErrMin= 4.51D-08
 ErrMax= 4.51D-08  0.00D+00 EMaxC= 1.00D-01 BMatC= 2.50D-13 BMatP= 7.44D-12
 IDIUse=1 WtCom= 1.00D+00 WtEn= 0.00D+00
 Coeff-Com: -0.474D-05 0.101D-04 0.163D-04 0.166D-04-0.859D-04-0.103D-02
 Coeff-Com: -0.318D-02-0.193D-02 0.288D-01 0.182D+00 0.795D+00
 Coeff:     -0.474D-05 0.101D-04 0.163D-04 0.166D-04-0.859D-04-0.103D-02
 Coeff:     -0.318D-02-0.193D-02 0.288D-01 0.182D+00 0.795D+00
 Gap=     0.209 Goal=   None    Shift=    0.000
 RMSDP=5.03D-09 MaxDP=8.04D-08 DE=-8.64D-12 OVMax= 2.17D-07

 Error on total polarization charges =  0.02257
 SCF Done:  E(RB972) =  -195.254925136     A.U. after   11 cycles
            NFock= 11  Conv=0.50D-08     -V/T= 2.0073
 KE= 1.938442378931D+02 PE=-7.718635014199D+02 EE= 2.226843863706D+02
 SMD-CDS (non-electrostatic) energy       (kcal/mol) =      -1.08
 (included in total energy above)
 Leave Link  502 at Tue Jun 28 22:35:19 2016, MaxMem=   268435456 cpu:       103.2
 (Enter /n/sw/g09_D.01/g09/l701.exe)
 Compute integral first derivatives.
 ... and contract with generalized density number  0.
 D1PCM: PCM CHGder 1st derivatives, ID1Alg=3 FixD1E=F DoIter=F DoCFld=F I1PDM=0.
 GePol: Maximum number of non-zero 1st derivatives   =     245
 Leave Link  701 at Tue Jun 28 22:35:22 2016, MaxMem=   268435456 cpu:         9.4
 (Enter /n/sw/g09_D.01/g09/l702.exe)
 L702 exits ... SP integral derivatives will be done elsewhere.
 Leave Link  702 at Tue Jun 28 22:35:22 2016, MaxMem=   268435456 cpu:         0.2
 (Enter /n/sw/g09_D.01/g09/l703.exe)
 Compute integral first derivatives, UseDBF=F ICtDFT=           0.
 Integral derivatives from FoFJK, PRISM(SPDF).
 Calling FoFJK, ICntrl=      2127 FMM=F ISym2X=1 I1Cent= 0 IOpClX= 0 NMat=1 NMatS=1 NMatT=0.
 FoFJK:  IHMeth= 1 ICntrl=    2127 DoSepK=F KAlg= 0 I1Cent=   0 FoldK=F
 IRaf=         0 NMat=   1 IRICut=       1 DoRegI=T DoRafI=F ISym2E= 1.
 FoFCou: FMM=F IPFlag=           0 FMFlag=      100000 FMFlg1=         800
         NFxFlg=           0 DoJE=F BraDBF=F KetDBF=F FulRan=T
         wScrn=  0.000000 ICntrl=    2127 IOpCl=  0 I1Cent=           0 NGrid=           0
         NMat0=    1 NMatS0=      1 NMatT0=    0 NMatD0=    1 NMtDS0=    0 NMtDT0=    0
 Petite list used in FoFCou.
 Leave Link  703 at Tue Jun 28 22:35:26 2016, MaxMem=   268435456 cpu:        10.7
 (Enter /n/sw/g09_D.01/g09/l716.exe)
 Dipole        =-1.29145836D-01-1.07964144D-02 2.22044605D-16
 ***** Axes restored to original set *****
 -------------------------------------------------------------------
 Center     Atomic                   Forces (Hartrees/Bohr)
 Number     Number              X              Y              Z
 -------------------------------------------------------------------
      1        1          -0.003272956   -0.000508124    0.000000000
      2        6          -0.000228693    0.001846190    0.000000000
      3        6          -0.001936814    0.001264842    0.000000000
      4        1           0.002812188   -0.002094403    0.000000000
      5        6          -0.004891310   -0.002628407    0.000000000
      6        1           0.002645791    0.000336440    0.000000000
      7        6           0.000213355   -0.000610419    0.000000000
      8        6           0.005487462    0.000396550    0.000000000
      9        1          -0.002325647    0.002320383    0.000000000
     10        1           0.003330230   -0.000412626    0.000000000
     11        1          -0.000814977    0.001788495    0.000000000
     12        1          -0.000509315   -0.000849461    0.001579396
     13        1          -0.000509315   -0.000849461   -0.001579396
 -------------------------------------------------------------------
 Cartesian Forces:  Max     0.005487462 RMS     0.001850703
 Leave Link  716 at Tue Jun 28 22:35:26 2016, MaxMem=   268435456 cpu:         0.2
 (Enter /n/sw/g09_D.01/g09/l103.exe)

 GradGradGradGradGradGradGradGradGradGradGradGradGradGradGradGradGradGrad
 Berny optimization.
 FormGI is forming the generalized inverse of G from B-inverse, IUseBI=4.
 Internal  Forces:  Max     0.003677002 RMS     0.001322389
 Search for a local minimum.
 Step number   1 out of a maximum of   58
 All quantities printed in internal units (Hartrees-Bohrs-Radians)
 RMS Force = .13224D-02 SwitMx=.10000D-02 MixMth= 1
 Mixed Optimization -- RFO/linear search
 Second derivative matrix not updated -- first step.
 ITU=  0
     Eigenvalues ---    0.00644   0.01183   0.01434   0.02058   0.02829
     Eigenvalues ---    0.02829   0.02879   0.02879   0.07091   0.07167
     Eigenvalues ---    0.16000   0.16000   0.16000   0.16000   0.16000
     Eigenvalues ---    0.16000   0.16000   0.16000   0.22000   0.25000
     Eigenvalues ---    0.25000   0.31426   0.33971   0.33971   0.34387
     Eigenvalues ---    0.34805   0.35132   0.35222   0.35232   0.35279
     Eigenvalues ---    0.35928   0.56306   0.57148
 RFO step:  Lambda=-2.53314753D-04 EMin= 6.43534302D-03
 Linear search not attempted -- first point.
 Iteration  1 RMS(Cart)=  0.00512474 RMS(Int)=  0.00001544
 Iteration  2 RMS(Cart)=  0.00002227 RMS(Int)=  0.00000012
 Iteration  3 RMS(Cart)=  0.00000000 RMS(Int)=  0.00000012
 ITry= 1 IFail=0 DXMaxC= 1.87D-02 DCOld= 1.00D+10 DXMaxT= 3.00D-01 DXLimC= 3.00D+00 Rises=F
 ClnCor:  largest displacement from symmetrization is 1.82D-12 for atom     1.
 Variable       Old X    -DE/DX   Delta X   Delta X   Delta X     New X
                                 (Linear)    (Quad)   (Total)
    R1        2.05300   0.00330   0.00000   0.00935   0.00935   2.06235
    R2        2.53271   0.00093   0.00000   0.00163   0.00163   2.53434
    R3        2.05225   0.00340   0.00000   0.00964   0.00964   2.06188
    R4        2.77495  -0.00068   0.00000  -0.00190  -0.00190   2.77305
    R5        2.05993   0.00267   0.00000   0.00766   0.00766   2.06759
    R6        2.53989   0.00170   0.00000   0.00301   0.00301   2.54291
    R7        2.85208  -0.00368   0.00000  -0.01169  -0.01169   2.84039
    R8        2.05316   0.00321   0.00000   0.00910   0.00910   2.06226
    R9        2.05461   0.00327   0.00000   0.00930   0.00930   2.06391
   R10        2.06682   0.00196   0.00000   0.00570   0.00570   2.07252
   R11        2.07379   0.00186   0.00000   0.00548   0.00548   2.07927
   R12        2.07379   0.00186   0.00000   0.00548   0.00548   2.07927
    A1        2.13786   0.00029   0.00000   0.00179   0.00179   2.13965
    A2        2.02982   0.00075   0.00000   0.00468   0.00468   2.03450
    A3        2.11551  -0.00104   0.00000  -0.00647  -0.00647   2.10904
    A4        2.20011   0.00020   0.00000   0.00090   0.00090   2.20101
    A5        2.07212  -0.00018   0.00000  -0.00094  -0.00094   2.07117
    A6        2.01096  -0.00002   0.00000   0.00004   0.00004   2.01100
    A7        2.09059  -0.00097   0.00000  -0.00389  -0.00389   2.08670
    A8        2.07113   0.00069   0.00000   0.00277   0.00277   2.07390
    A9        2.12146   0.00028   0.00000   0.00113   0.00113   2.12258
   A10        2.12724  -0.00052   0.00000  -0.00322  -0.00322   2.12403
   A11        2.12159  -0.00049   0.00000  -0.00306  -0.00306   2.11853
   A12        2.03435   0.00101   0.00000   0.00628   0.00628   2.04063
   A13        1.94128  -0.00010   0.00000  -0.00093  -0.00093   1.94035
   A14        1.94019  -0.00007   0.00000  -0.00030  -0.00030   1.93990
   A15        1.94019  -0.00007   0.00000  -0.00030  -0.00030   1.93990
   A16        1.88697   0.00005   0.00000   0.00001   0.00001   1.88698
   A17        1.88697   0.00005   0.00000   0.00001   0.00001   1.88698
   A18        1.86534   0.00017   0.00000   0.00162   0.00162   1.86696
    D1        0.00000   0.00000   0.00000   0.00000   0.00000   0.00000
    D2        3.14159   0.00000   0.00000   0.00000   0.00000   3.14159
    D3        3.14159   0.00000   0.00000   0.00000   0.00000   3.14159
    D4        0.00000   0.00000   0.00000   0.00000   0.00000   0.00000
    D5        3.14159   0.00000   0.00000   0.00000   0.00000   3.14159
    D6        0.00000   0.00000   0.00000   0.00000   0.00000   0.00000
    D7        0.00000   0.00000   0.00000   0.00000   0.00000   0.00000
    D8        3.14159   0.00000   0.00000   0.00000   0.00000   3.14159
    D9        3.14159   0.00000   0.00000   0.00000   0.00000   3.14159
   D10        0.00000   0.00000   0.00000   0.00000   0.00000   0.00000
   D11        0.00000   0.00000   0.00000   0.00000   0.00000   0.00000
   D12        3.14159   0.00000   0.00000   0.00000   0.00000   3.14159
   D13        3.14159   0.00000   0.00000   0.00000   0.00000   3.14159
   D14        1.03785   0.00006   0.00000   0.00082   0.00082   1.03867
   D15       -1.03785  -0.00006   0.00000  -0.00082  -0.00082  -1.03867
   D16        0.00000   0.00000   0.00000   0.00000   0.00000   0.00000
   D17       -2.10375   0.00006   0.00000   0.00082   0.00082  -2.10292
   D18        2.10375  -0.00006   0.00000  -0.00082  -0.00082   2.10292
         Item               Value     Threshold  Converged?
 Maximum Force            0.003677     0.000450     NO 
 RMS     Force            0.001322     0.000300     NO 
 Maximum Displacement     0.018690     0.001800     NO 
 RMS     Displacement     0.005133     0.001200     NO 
 Predicted change in Energy=-1.267601D-04
 Lowest energy point so far.  Saving SCF results.
 GradGradGradGradGradGradGradGradGradGradGradGradGradGradGradGradGradGrad

 Leave Link  103 at Tue Jun 28 22:35:28 2016, MaxMem=   268435456 cpu:         4.6
 (Enter /n/sw/g09_D.01/g09/l202.exe)
                          Input orientation:                          
 ---------------------------------------------------------------------
 Center     Atomic      Atomic             Coordinates (Angstroms)
 Number     Number       Type             X           Y           Z
 ---------------------------------------------------------------------
      1          1           0       -0.688903   -2.197083    0.000000
      2          6           0        0.374308   -1.950855    0.000000
      3          6           0        0.823162   -0.687081    0.000000
      4          1           0        1.069912   -2.791471    0.000000
      5          6           0       -0.004579    0.524614    0.000000
      6          1           0        1.903467   -0.513733    0.000000
      7          6           0        0.587486    1.733014    0.000000
      8          6           0       -1.500695    0.380231    0.000000
      9          1           0        0.005966    2.656472    0.000000
     10          1           0        1.675024    1.833516    0.000000
     11          1           0       -1.993238    1.360139    0.000000
     12          1           0       -1.845808   -0.176153    0.884307
     13          1           0       -1.845808   -0.176153   -0.884307
 ---------------------------------------------------------------------
                    Distance matrix (angstroms):
                    1          2          3          4          5
     1  H    0.000000
     2  C    1.091351   0.000000
     3  C    2.136925   1.341117   0.000000
     4  H    1.856536   1.091100   2.118807   0.000000
     5  C    2.806409   2.504296   1.467433   3.485821   0.000000
     6  H    3.090962   2.098486   1.094124   2.425469   2.172280
     7  C    4.132170   3.690032   2.431543   4.550131   1.345649
     8  C    2.702139   2.991588   2.557239   4.082612   1.503067
     9  H    4.903044   4.622027   3.441970   5.550861   2.131885
    10  H    4.672674   4.001665   2.660654   4.664404   2.129387
    11  H    3.788815   4.070375   3.481842   5.159337   2.157051
    12  H    2.490902   2.976657   2.857701   4.015385   2.159444
    13  H    2.490902   2.976657   2.857701   4.015385   2.159444
                    6          7          8          9         10
     6  H    0.000000
     7  C    2.603782   0.000000
     8  C    3.519587   2.488076   0.000000
     9  H    3.694687   1.091302   2.729707   0.000000
    10  H    2.358340   1.092172   3.492453   1.860917   0.000000
    11  H    4.323853   2.607522   1.096730   2.382708   3.698680
    12  H    3.866914   3.216805   1.100302   3.497832   4.149341
    13  H    3.866914   3.216805   1.100302   3.497832   4.149341
                   11         12         13
    11  H    0.000000
    12  H    1.778743   0.000000
    13  H    1.778743   1.768614   0.000000
 Stoichiometry    C5H8
 Framework group  CS[SG(C5H6),X(H2)]
 Deg. of freedom    22
 Full point group                 CS      NOp   2
 RotChk:  IX=0 Diff= 9.41D-03
 Largest Abelian subgroup         CS      NOp   2
 Largest concise Abelian subgroup CS      NOp   2
                         Standard orientation:                         
 ---------------------------------------------------------------------
 Center     Atomic      Atomic             Coordinates (Angstroms)
 Number     Number       Type             X           Y           Z
 ---------------------------------------------------------------------
      1          1           0       -0.702421   -2.192328    0.000000
      2          6           0        0.362405   -1.953180    0.000000
      3          6           0        0.819659   -0.692421    0.000000
      4          1           0        1.052400   -2.798406    0.000000
      5          6           0        0.000000    0.524755    0.000000
      6          1           0        1.901094   -0.526266    0.000000
      7          6           0        0.600093    1.729188    0.000000
      8          6           0       -1.497044    0.390332    0.000000
      9          1           0        0.024732    2.656496    0.000000
     10          1           0        1.688276    1.822451    0.000000
     11          1           0       -1.983055    1.373496    0.000000
     12          1           0       -1.845852   -0.163743    0.884307
     13          1           0       -1.845852   -0.163743   -0.884307
 ---------------------------------------------------------------------
 Rotational constants (GHZ):      8.5302320      4.1542296      2.8432452
 Leave Link  202 at Tue Jun 28 22:35:28 2016, MaxMem=   268435456 cpu:         0.1
 (Enter /n/sw/g09_D.01/g09/l301.exe)
 Standard basis: CC-pVDZ (5D, 7F)
 Ernie: Thresh=  0.10000D-02 Tol=  0.10000D-05 Strict=F.
 Ernie:  10 primitive shells out of 150 were deleted.
 There are    84 symmetry adapted cartesian basis functions of A'  symmetry.
 There are    31 symmetry adapted cartesian basis functions of A"  symmetry.
 There are    79 symmetry adapted basis functions of A'  symmetry.
 There are    31 symmetry adapted basis functions of A"  symmetry.
   110 basis functions,   221 primitive gaussians,   115 cartesian basis functions
    19 alpha electrons       19 beta electrons
       nuclear repulsion energy       160.0432046045 Hartrees.
 IExCor= 1715 DFT=T Ex+Corr=B972 ExCW=0 ScaHFX=  0.210000
 ScaDFX=  1.000000  1.000000  1.000000  1.000000 ScalE2=  1.000000  1.000000
 IRadAn=      0 IRanWt=     -1 IRanGd=            0 ICorTp=0 IEmpDi=  4
 NAtoms=   13 NActive=   13 NUniq=   12 SFac= 1.17D+00 NAtFMM=   60 NAOKFM=F Big=F
 Integral buffers will be    131072 words long.
 Raffenetti 2 integral format.
 Two-electron integral symmetry is turned on.
 ------------------------------------------------------------------------------
 Polarizable Continuum Model (PCM)
 =================================
 Model                : PCM (using non-symmetric T matrix).
 Atomic radii         : SMD-Coulomb.
 Polarization charges : Total charges.
 Charge compensation  : None.
 Solution method      : On-the-fly selection.
 Cavity type          : VdW (van der Waals Surface) (Alpha=1.000).
 Cavity algorithm     : GePol (No added spheres)
                        Default sphere list used, NSphG=   13.
                        Lebedev-Laikov grids with approx.  5.0 points / Ang**2.
                        Smoothing algorithm: Karplus/York (Gamma=1.0000).
                        Polarization charges: spherical gaussians, with
                                              point-specific exponents (IZeta= 3).
                        Self-potential: point-specific (ISelfS= 7).
                        Self-field    : sphere-specific E.n sum rule (ISelfD= 2).
 1st derivatives      : Analytical E(r).r(x)/FMM algorithm (CHGder, D1EAlg=3).
                        Cavity 1st derivative terms included.
 Solvent              : o-Xylene, Eps=   2.545400 Eps(inf)=   2.266530
 ------------------------------------------------------------------------------
 Spheres list:
 ISph  on   Nord     Re0    Alpha      Xe            Ye            Ze
    1   H      1    1.2000  1.000     -0.702421     -2.192328      0.000000
    2   C      2    1.8500  1.000      0.362405     -1.953180      0.000000
    3   C      3    1.8500  1.000      0.819659     -0.692421      0.000000
    4   H      4    1.2000  1.000      1.052400     -2.798406      0.000000
    5   C      5    1.8500  1.000      0.000000      0.524755      0.000000
    6   H      6    1.2000  1.000      1.901094     -0.526266      0.000000
    7   C      7    1.8500  1.000      0.600093      1.729188      0.000000
    8   C      8    1.8500  1.000     -1.497044      0.390332      0.000000
    9   H      9    1.2000  1.000      0.024732      2.656496      0.000000
   10   H     10    1.2000  1.000      1.688276      1.822451      0.000000
   11   H     11    1.2000  1.000     -1.983055      1.373496      0.000000
   12   H     12    1.2000  1.000     -1.845852     -0.163743      0.884307
   13   H     13    1.2000  1.000     -1.845852     -0.163743     -0.884307
 ------------------------------------------------------------------------------
 GePol: Number of generator spheres                  =      13
 GePol: Total number of spheres                      =      13
 GePol: Number of exposed spheres                    =      13 (100.00%)
 GePol: Number of points                             =    1041
 GePol: Average weight of points                     =       0.11
 GePol: Minimum weight of points                     =   0.28D-06
 GePol: Maximum weight of points                     =    0.17992
 GePol: Number of points with low weight             =      34
 GePol: Fraction of low-weight points (<1% of avg)   =       3.27%
 GePol: Cavity surface area                          =    119.310 Ang**2
 GePol: Cavity volume                                =     93.235 Ang**3
 ------------------------------------------------------------------------------
 Atomic radii for non-electrostatic terms: SMD-CDS.
 ------------------------------------------------------------------------------
 PCM non-electrostatic energy =        -0.0017249641 Hartrees.
 Nuclear repulsion after PCM non-electrostatic terms =      160.0414796404 Hartrees.
 Leave Link  301 at Tue Jun 28 22:35:28 2016, MaxMem=   268435456 cpu:         0.2
 (Enter /n/sw/g09_D.01/g09/l302.exe)
 NPDir=0 NMtPBC=     1 NCelOv=     1 NCel=       1 NClECP=     1 NCelD=      1
         NCelK=      1 NCelE2=     1 NClLst=     1 CellRange=     0.0.
 One-electron integrals computed using PRISM.
 One-electron integral symmetry used in STVInt
 NBasis=   110 RedAO= T EigKep=  2.34D-03  NBF=    79    31
 NBsUse=   110 1.00D-06 EigRej= -1.00D+00 NBFU=    79    31
 Precomputing XC quadrature grid using
 IXCGrd= 4 IRadAn=           0 IRanWt=          -1 IRanGd=           0 AccXCQ= 0.00D+00.
 Generated NRdTot=       0 NPtTot=           0 NUsed=           0 NTot=          32
 NSgBfM=   115   115   115   115   115 MxSgAt=    13 MxSgA2=    13.
 Leave Link  302 at Tue Jun 28 22:35:29 2016, MaxMem=   268435456 cpu:         3.8
 (Enter /n/sw/g09_D.01/g09/l303.exe)
 DipDrv:  MaxL=1.
 Leave Link  303 at Tue Jun 28 22:35:30 2016, MaxMem=   268435456 cpu:         0.5
 (Enter /n/sw/g09_D.01/g09/l401.exe)
 Initial guess from the checkpoint file:  "checkpoint.chk"
 B after Tr=     0.000000    0.000000    0.000000
         Rot=    0.999994    0.000000    0.000000    0.003393 Ang=   0.39 deg.
 Guess basis will be translated and rotated to current coordinates.
 JPrj=2 DoOrth=T DoCkMO=T.
 Initial guess orbital symmetries:
       Occupied  (A') (A') (A') (A') (A') (A') (A') (A') (A') (A')
                 (A') (A') (A") (A') (A') (A') (A') (A") (A")
       Virtual   (A') (A') (A') (A') (A') (A') (A') (A') (A') (A')
                 (A') (A') (A') (A') (A') (A') (A') (A') (A') (A')
                 (A') (A') (A') (A') (A') (A') (A') (A') (A') (A')
                 (A') (A') (A') (A') (A') (A') (A') (A') (A') (A')
                 (A') (A') (A') (A') (A') (A') (A') (A') (A') (A')
                 (A') (A') (A') (A') (A') (A') (A') (A') (A') (A')
                 (A') (A') (A') (A") (A") (A") (A") (A") (A") (A")
                 (A") (A") (A") (A") (A") (A") (A") (A") (A") (A")
                 (A") (A") (A") (A") (A") (A") (A") (A") (A") (A")
                 (A")
 The electronic state of the initial guess is 1-A'.
 Leave Link  401 at Tue Jun 28 22:35:30 2016, MaxMem=   268435456 cpu:         2.2
 (Enter /n/sw/g09_D.01/g09/l502.exe)
 Closed shell SCF:
 Using DIIS extrapolation, IDIIS=  1040.
 Integral symmetry usage will be decided dynamically.
 Keep R1 ints in memory in symmetry-blocked form, NReq=28397239.
 IVT=       59963 IEndB=       59963 NGot=   268435456 MDV=   258676893
 LenX=   258676893 LenY=   258663227
 Requested convergence on RMS density matrix=1.00D-08 within 128 cycles.
 Requested convergence on MAX density matrix=1.00D-06.
 Requested convergence on             energy=1.00D-06.
 No special actions if energy rises.
 FoFCou: FMM=F IPFlag=           0 FMFlag=           0 FMFlg1=           0
         NFxFlg=           0 DoJE=F BraDBF=F KetDBF=F FulRan=T
         wScrn=  0.000000 ICntrl=     600 IOpCl=  0 I1Cent=           0 NGrid=           0
         NMat0=    1 NMatS0=   6105 NMatT0=    0 NMatD0=    1 NMtDS0=    0 NMtDT0=    0
 Petite list used in FoFCou.

 Cycle   1  Pass 1  IDiag  1:
 Inv3:  Mode=1 IEnd=     3251043.
 Iteration    1 A*A^-1 deviation from unit magnitude is 4.66D-15 for     99.
 Iteration    1 A*A^-1 deviation from orthogonality  is 4.03D-15 for    719    444.
 Iteration    1 A^-1*A deviation from unit magnitude is 5.33D-15 for     24.
 Iteration    1 A^-1*A deviation from orthogonality  is 3.71D-14 for    428    380.
 E= -195.255013284561    
 DIIS: error= 3.29D-04 at cycle   1 NSaved=   1.
 NSaved= 1 IEnMin= 1 EnMin= -195.255013284561     IErMin= 1 ErrMin= 3.29D-04
 ErrMax= 3.29D-04  0.00D+00 EMaxC= 1.00D-01 BMatC= 2.75D-05 BMatP= 2.75D-05
 IDIUse=3 WtCom= 9.97D-01 WtEn= 3.29D-03
 Coeff-Com:  0.100D+01
 Coeff-En:   0.100D+01
 Coeff:      0.100D+01
 Gap=     0.691 Goal=   None    Shift=    0.000
 RMSDP=9.55D-05 MaxDP=1.28D-03              OVMax= 1.56D-03

 Cycle   2  Pass 1  IDiag  1:
 E= -195.255050937537     Delta-E=       -0.000037652976 Rises=F Damp=F
 DIIS: error= 1.67D-04 at cycle   2 NSaved=   2.
 NSaved= 2 IEnMin= 2 EnMin= -195.255050937537     IErMin= 2 ErrMin= 1.67D-04
 ErrMax= 1.67D-04  0.00D+00 EMaxC= 1.00D-01 BMatC= 3.60D-06 BMatP= 2.75D-05
 IDIUse=3 WtCom= 9.98D-01 WtEn= 1.67D-03
 Coeff-Com:  0.155D+00 0.845D+00
 Coeff-En:   0.000D+00 0.100D+01
 Coeff:      0.155D+00 0.845D+00
 Gap=     0.209 Goal=   None    Shift=    0.000
 RMSDP=2.90D-05 MaxDP=1.06D-03 DE=-3.77D-05 OVMax= 1.62D-03

 Cycle   3  Pass 1  IDiag  1:
 E= -195.255049832889     Delta-E=        0.000001104648 Rises=F Damp=F
 DIIS: error= 2.28D-04 at cycle   3 NSaved=   3.
 NSaved= 3 IEnMin= 2 EnMin= -195.255050937537     IErMin= 2 ErrMin= 1.67D-04
 ErrMax= 2.28D-04  0.00D+00 EMaxC= 1.00D-01 BMatC= 4.80D-06 BMatP= 3.60D-06
 IDIUse=3 WtCom= 3.98D-01 WtEn= 6.02D-01
 Coeff-Com: -0.473D-02 0.539D+00 0.466D+00
 Coeff-En:   0.000D+00 0.554D+00 0.446D+00
 Coeff:     -0.188D-02 0.548D+00 0.454D+00
 Gap=     0.209 Goal=   None    Shift=    0.000
 RMSDP=1.61D-05 MaxDP=5.85D-04 DE= 1.10D-06 OVMax= 9.58D-04

 Cycle   4  Pass 1  IDiag  1:
 E= -195.255054707564     Delta-E=       -0.000004874675 Rises=F Damp=F
 DIIS: error= 2.27D-05 at cycle   4 NSaved=   4.
 NSaved= 4 IEnMin= 4 EnMin= -195.255054707564     IErMin= 4 ErrMin= 2.27D-05
 ErrMax= 2.27D-05  0.00D+00 EMaxC= 1.00D-01 BMatC= 7.34D-08 BMatP= 3.60D-06
 IDIUse=1 WtCom= 1.00D+00 WtEn= 0.00D+00
 Coeff-Com: -0.743D-02 0.204D+00 0.193D+00 0.611D+00
 Coeff:     -0.743D-02 0.204D+00 0.193D+00 0.611D+00
 Gap=     0.209 Goal=   None    Shift=    0.000
 RMSDP=2.88D-06 MaxDP=5.90D-05 DE=-4.87D-06 OVMax= 1.13D-04

 Cycle   5  Pass 1  IDiag  1:
 E= -195.255054788476     Delta-E=       -0.000000080912 Rises=F Damp=F
 DIIS: error= 6.22D-06 at cycle   5 NSaved=   5.
 NSaved= 5 IEnMin= 5 EnMin= -195.255054788476     IErMin= 5 ErrMin= 6.22D-06
 ErrMax= 6.22D-06  0.00D+00 EMaxC= 1.00D-01 BMatC= 5.15D-09 BMatP= 7.34D-08
 IDIUse=1 WtCom= 1.00D+00 WtEn= 0.00D+00
 Coeff-Com: -0.285D-02 0.299D-01 0.300D-01 0.233D+00 0.710D+00
 Coeff:     -0.285D-02 0.299D-01 0.300D-01 0.233D+00 0.710D+00
 Gap=     0.209 Goal=   None    Shift=    0.000
 RMSDP=6.50D-07 MaxDP=1.30D-05 DE=-8.09D-08 OVMax= 2.71D-05

 Cycle   6  Pass 1  IDiag  1:
 E= -195.255054793973     Delta-E=       -0.000000005497 Rises=F Damp=F
 DIIS: error= 1.36D-06 at cycle   6 NSaved=   6.
 NSaved= 6 IEnMin= 6 EnMin= -195.255054793973     IErMin= 6 ErrMin= 1.36D-06
 ErrMax= 1.36D-06  0.00D+00 EMaxC= 1.00D-01 BMatC= 2.39D-10 BMatP= 5.15D-09
 IDIUse=1 WtCom= 1.00D+00 WtEn= 0.00D+00
 Coeff-Com: -0.928D-03 0.493D-02 0.528D-02 0.728D-01 0.289D+00 0.629D+00
 Coeff:     -0.928D-03 0.493D-02 0.528D-02 0.728D-01 0.289D+00 0.629D+00
 Gap=     0.209 Goal=   None    Shift=    0.000
 RMSDP=1.73D-07 MaxDP=3.72D-06 DE=-5.50D-09 OVMax= 1.01D-05

 Cycle   7  Pass 1  IDiag  1:
 E= -195.255054794182     Delta-E=       -0.000000000209 Rises=F Damp=F
 DIIS: error= 7.89D-07 at cycle   7 NSaved=   7.
 NSaved= 7 IEnMin= 7 EnMin= -195.255054794182     IErMin= 7 ErrMin= 7.89D-07
 ErrMax= 7.89D-07  0.00D+00 EMaxC= 1.00D-01 BMatC= 4.40D-11 BMatP= 2.39D-10
 IDIUse=1 WtCom= 1.00D+00 WtEn= 0.00D+00
 Coeff-Com: -0.264D-03 0.276D-03 0.468D-03 0.212D-01 0.104D+00 0.354D+00
 Coeff-Com:  0.520D+00
 Coeff:     -0.264D-03 0.276D-03 0.468D-03 0.212D-01 0.104D+00 0.354D+00
 Coeff:      0.520D+00
 Gap=     0.209 Goal=   None    Shift=    0.000
 RMSDP=6.54D-08 MaxDP=2.07D-06 DE=-2.09D-10 OVMax= 4.69D-06

 Cycle   8  Pass 1  IDiag  1:
 E= -195.255054794229     Delta-E=       -0.000000000047 Rises=F Damp=F
 DIIS: error= 1.43D-07 at cycle   8 NSaved=   8.
 NSaved= 8 IEnMin= 8 EnMin= -195.255054794229     IErMin= 8 ErrMin= 1.43D-07
 ErrMax= 1.43D-07  0.00D+00 EMaxC= 1.00D-01 BMatC= 2.70D-12 BMatP= 4.40D-11
 IDIUse=1 WtCom= 1.00D+00 WtEn= 0.00D+00
 Coeff-Com: -0.582D-04-0.336D-03-0.242D-03 0.494D-02 0.304D-01 0.133D+00
 Coeff-Com:  0.265D+00 0.568D+00
 Coeff:     -0.582D-04-0.336D-03-0.242D-03 0.494D-02 0.304D-01 0.133D+00
 Coeff:      0.265D+00 0.568D+00
 Gap=     0.209 Goal=   None    Shift=    0.000
 RMSDP=1.41D-08 MaxDP=4.95D-07 DE=-4.75D-11 OVMax= 8.20D-07

 Cycle   9  Pass 1  IDiag  1:
 E= -195.255054794237     Delta-E=       -0.000000000008 Rises=F Damp=F
 DIIS: error= 3.41D-08 at cycle   9 NSaved=   9.
 NSaved= 9 IEnMin= 9 EnMin= -195.255054794237     IErMin= 9 ErrMin= 3.41D-08
 ErrMax= 3.41D-08  0.00D+00 EMaxC= 1.00D-01 BMatC= 1.98D-13 BMatP= 2.70D-12
 IDIUse=1 WtCom= 1.00D+00 WtEn= 0.00D+00
 Coeff-Com:  0.805D-05-0.152D-03-0.136D-03-0.589D-03-0.461D-03 0.966D-02
 Coeff-Com:  0.459D-01 0.250D+00 0.696D+00
 Coeff:      0.805D-05-0.152D-03-0.136D-03-0.589D-03-0.461D-03 0.966D-02
 Coeff:      0.459D-01 0.250D+00 0.696D+00
 Gap=     0.209 Goal=   None    Shift=    0.000
 RMSDP=3.60D-09 MaxDP=9.72D-08 DE=-7.62D-12 OVMax= 1.46D-07

 Error on total polarization charges =  0.02265
 SCF Done:  E(RB972) =  -195.255054794     A.U. after    9 cycles
            NFock=  9  Conv=0.36D-08     -V/T= 2.0075
 KE= 1.938063591060D+02 PE=-7.717582312076D+02 EE= 2.226553376669D+02
 SMD-CDS (non-electrostatic) energy       (kcal/mol) =      -1.08
 (included in total energy above)
 Leave Link  502 at Tue Jun 28 22:35:56 2016, MaxMem=   268435456 cpu:        78.0
 (Enter /n/sw/g09_D.01/g09/l701.exe)
 Compute integral first derivatives.
 ... and contract with generalized density number  0.
 D1PCM: PCM CHGder 1st derivatives, ID1Alg=3 FixD1E=F DoIter=F DoCFld=F I1PDM=0.
 GePol: Maximum number of non-zero 1st derivatives   =     244
 Leave Link  701 at Tue Jun 28 22:36:00 2016, MaxMem=   268435456 cpu:         9.1
 (Enter /n/sw/g09_D.01/g09/l702.exe)
 L702 exits ... SP integral derivatives will be done elsewhere.
 Leave Link  702 at Tue Jun 28 22:36:00 2016, MaxMem=   268435456 cpu:         0.1
 (Enter /n/sw/g09_D.01/g09/l703.exe)
 Compute integral first derivatives, UseDBF=F ICtDFT=           0.
 Integral derivatives from FoFJK, PRISM(SPDF).
 Calling FoFJK, ICntrl=      2127 FMM=F ISym2X=1 I1Cent= 0 IOpClX= 0 NMat=1 NMatS=1 NMatT=0.
 FoFJK:  IHMeth= 1 ICntrl=    2127 DoSepK=F KAlg= 0 I1Cent=   0 FoldK=F
 IRaf=         0 NMat=   1 IRICut=       1 DoRegI=T DoRafI=F ISym2E= 1.
 FoFCou: FMM=F IPFlag=           0 FMFlag=      100000 FMFlg1=         800
         NFxFlg=           0 DoJE=F BraDBF=F KetDBF=F FulRan=T
         wScrn=  0.000000 ICntrl=    2127 IOpCl=  0 I1Cent=           0 NGrid=           0
         NMat0=    1 NMatS0=      1 NMatT0=    0 NMatD0=    1 NMtDS0=    0 NMtDT0=    0
 Petite list used in FoFCou.
 Leave Link  703 at Tue Jun 28 22:36:03 2016, MaxMem=   268435456 cpu:        10.8
 (Enter /n/sw/g09_D.01/g09/l716.exe)
 Dipole        =-1.31117512D-01-8.62267220D-03 0.00000000D+00
 ***** Axes restored to original set *****
 -------------------------------------------------------------------
 Center     Atomic                   Forces (Hartrees/Bohr)
 Number     Number              X              Y              Z
 -------------------------------------------------------------------
      1        1           0.000238539    0.000109413    0.000000000
      2        6          -0.000241426   -0.000456980    0.000000000
      3        6           0.000289483    0.000294911    0.000000000
      4        1           0.000013201    0.000248078    0.000000000
      5        6          -0.000891319   -0.000355248    0.000000000
      6        1          -0.000132500   -0.000146486    0.000000000
      7        6           0.000746522    0.000736519    0.000000000
      8        6           0.000764422    0.000198969    0.000000000
      9        1          -0.000069466   -0.000287341    0.000000000
     10        1          -0.000232641   -0.000234866    0.000000000
     11        1          -0.000164621   -0.000120458    0.000000000
     12        1          -0.000160097    0.000006743   -0.000068737
     13        1          -0.000160097    0.000006743    0.000068737
 -------------------------------------------------------------------
 Cartesian Forces:  Max     0.000891319 RMS     0.000301743
 Leave Link  716 at Tue Jun 28 22:36:04 2016, MaxMem=   268435456 cpu:         0.2
 (Enter /n/sw/g09_D.01/g09/l103.exe)

 GradGradGradGradGradGradGradGradGradGradGradGradGradGradGradGradGradGrad
 Berny optimization.
 Using GEDIIS/GDIIS optimizer.
 FormGI is forming the generalized inverse of G from B-inverse, IUseBI=4.
 Internal  Forces:  Max     0.000471901 RMS     0.000165100
 Search for a local minimum.
 Step number   2 out of a maximum of   58
 All quantities printed in internal units (Hartrees-Bohrs-Radians)
 RMS Force = .16510D-03 SwitMx=.10000D-02 MixMth= 2
 Mixed Optimization -- En-DIIS/RFO-DIIS
 Update second derivatives using D2CorX and points    1    2
 DE= -1.30D-04 DEPred=-1.27D-04 R= 1.02D+00
 TightC=F SS=  1.41D+00  RLast= 2.85D-02 DXNew= 5.0454D-01 8.5437D-02
 Trust test= 1.02D+00 RLast= 2.85D-02 DXMaxT set to 3.00D-01
 ITU=  1  0
 Use linear search instead of GDIIS.
     Eigenvalues ---    0.00644   0.01183   0.01431   0.02057   0.02829
     Eigenvalues ---    0.02829   0.02879   0.02879   0.07101   0.07174
     Eigenvalues ---    0.15132   0.16000   0.16000   0.16000   0.16000
     Eigenvalues ---    0.16000   0.16000   0.16163   0.21917   0.24331
     Eigenvalues ---    0.25004   0.30850   0.33960   0.33971   0.34392
     Eigenvalues ---    0.34847   0.35160   0.35224   0.35260   0.35917
     Eigenvalues ---    0.38679   0.55906   0.57123
 RFO step:  Lambda=-5.65892139D-06 EMin= 6.43534302D-03
 Quartic linear search produced a step of  0.00773.
 Iteration  1 RMS(Cart)=  0.00203441 RMS(Int)=  0.00000177
 Iteration  2 RMS(Cart)=  0.00000213 RMS(Int)=  0.00000024
 Iteration  3 RMS(Cart)=  0.00000000 RMS(Int)=  0.00000024
 ITry= 1 IFail=0 DXMaxC= 6.18D-03 DCOld= 1.00D+10 DXMaxT= 3.00D-01 DXLimC= 3.00D+00 Rises=F
 ClnCor:  largest displacement from symmetrization is 3.06D-12 for atom     1.
 Variable       Old X    -DE/DX   Delta X   Delta X   Delta X     New X
                                 (Linear)    (Quad)   (Total)
    R1        2.06235  -0.00026   0.00007  -0.00062  -0.00055   2.06181
    R2        2.53434   0.00008   0.00001   0.00016   0.00018   2.53452
    R3        2.06188  -0.00018   0.00007  -0.00038  -0.00030   2.06158
    R4        2.77305   0.00006  -0.00001   0.00014   0.00012   2.77317
    R5        2.06759  -0.00015   0.00006  -0.00033  -0.00027   2.06732
    R6        2.54291   0.00039   0.00002   0.00074   0.00076   2.54367
    R7        2.84039  -0.00028  -0.00009  -0.00107  -0.00116   2.83923
    R8        2.06226  -0.00020   0.00007  -0.00045  -0.00038   2.06189
    R9        2.06391  -0.00026   0.00007  -0.00061  -0.00054   2.06337
   R10        2.07252  -0.00004   0.00004  -0.00003   0.00002   2.07254
   R11        2.07927  -0.00001   0.00004   0.00006   0.00010   2.07937
   R12        2.07927  -0.00001   0.00004   0.00006   0.00010   2.07937
    A1        2.13965   0.00005   0.00001   0.00037   0.00038   2.14003
    A2        2.03450   0.00016   0.00004   0.00105   0.00108   2.03558
    A3        2.10904  -0.00021  -0.00005  -0.00142  -0.00147   2.10757
    A4        2.20101   0.00020   0.00001   0.00094   0.00095   2.20195
    A5        2.07117  -0.00022  -0.00001  -0.00124  -0.00125   2.06993
    A6        2.01100   0.00002   0.00000   0.00030   0.00030   2.01130
    A7        2.08670  -0.00047  -0.00003  -0.00196  -0.00199   2.08471
    A8        2.07390   0.00025   0.00002   0.00105   0.00107   2.07497
    A9        2.12258   0.00022   0.00001   0.00091   0.00092   2.12350
   A10        2.12403  -0.00016  -0.00002  -0.00105  -0.00107   2.12295
   A11        2.11853  -0.00013  -0.00002  -0.00088  -0.00090   2.11762
   A12        2.04063   0.00029   0.00005   0.00193   0.00198   2.04261
   A13        1.94035   0.00023  -0.00001   0.00152   0.00151   1.94186
   A14        1.93990   0.00016   0.00000   0.00093   0.00093   1.94083
   A15        1.93990   0.00016   0.00000   0.00093   0.00093   1.94083
   A16        1.88698  -0.00019   0.00000  -0.00111  -0.00111   1.88587
   A17        1.88698  -0.00019   0.00000  -0.00111  -0.00111   1.88587
   A18        1.86696  -0.00019   0.00001  -0.00137  -0.00136   1.86560
    D1        0.00000   0.00000   0.00000   0.00000   0.00000   0.00000
    D2        3.14159   0.00000   0.00000   0.00000   0.00000   3.14159
    D3        3.14159   0.00000   0.00000   0.00000   0.00000   3.14159
    D4        0.00000   0.00000   0.00000   0.00000   0.00000   0.00000
    D5        3.14159   0.00000   0.00000   0.00000   0.00000   3.14159
    D6        0.00000   0.00000   0.00000   0.00000   0.00000   0.00000
    D7        0.00000   0.00000   0.00000   0.00000   0.00000   0.00000
    D8        3.14159   0.00000   0.00000   0.00000   0.00000   3.14159
    D9        3.14159   0.00000   0.00000   0.00000   0.00000   3.14159
   D10        0.00000   0.00000   0.00000   0.00000   0.00000   0.00000
   D11        0.00000   0.00000   0.00000   0.00000   0.00000   0.00000
   D12        3.14159   0.00000   0.00000   0.00000   0.00000   3.14159
   D13        3.14159   0.00000   0.00000   0.00000   0.00000   3.14159
   D14        1.03867  -0.00002   0.00001  -0.00025  -0.00024   1.03843
   D15       -1.03867   0.00002  -0.00001   0.00025   0.00024  -1.03843
   D16        0.00000   0.00000   0.00000   0.00000   0.00000   0.00000
   D17       -2.10292  -0.00002   0.00001  -0.00025  -0.00024  -2.10317
   D18        2.10292   0.00002  -0.00001   0.00025   0.00024   2.10317
         Item               Value     Threshold  Converged?
 Maximum Force            0.000472     0.000450     NO 
 RMS     Force            0.000165     0.000300     YES
 Maximum Displacement     0.006175     0.001800     NO 
 RMS     Displacement     0.002034     0.001200     NO 
 Predicted change in Energy=-2.841765D-06
 Lowest energy point so far.  Saving SCF results.
 GradGradGradGradGradGradGradGradGradGradGradGradGradGradGradGradGradGrad

 Leave Link  103 at Tue Jun 28 22:36:05 2016, MaxMem=   268435456 cpu:         5.1
 (Enter /n/sw/g09_D.01/g09/l202.exe)
                          Input orientation:                          
 ---------------------------------------------------------------------
 Center     Atomic      Atomic             Coordinates (Angstroms)
 Number     Number       Type             X           Y           Z
 ---------------------------------------------------------------------
      1          1           0       -0.687218   -2.199217    0.000000
      2          6           0        0.375284   -1.951219    0.000000
      3          6           0        0.822468   -0.686754    0.000000
      4          1           0        1.073146   -2.789754    0.000000
      5          6           0       -0.005795    0.524662    0.000000
      6          1           0        1.902614   -0.513323    0.000000
      7          6           0        0.588364    1.732481    0.000000
      8          6           0       -1.501399    0.381340    0.000000
      9          1           0        0.007425    2.656070    0.000000
     10          1           0        1.675866    1.830248    0.000000
     11          1           0       -1.994766    1.360842    0.000000
     12          1           0       -1.847848   -0.174959    0.883906
     13          1           0       -1.847848   -0.174959   -0.883906
 ---------------------------------------------------------------------
                    Distance matrix (angstroms):
                    1          2          3          4          5
     1  H    0.000000
     2  C    1.091061   0.000000
     3  C    2.136983   1.341210   0.000000
     4  H    1.856775   1.090941   2.117887   0.000000
     5  C    2.807820   2.505036   1.467497   3.485608   0.000000
     6  H    3.090221   2.097685   1.093981   2.422839   2.172427
     7  C    4.133444   3.689858   2.430536   4.548145   1.346051
     8  C    2.705950   2.993788   2.557573   4.084619   1.502455
     9  H    4.904727   4.621951   3.440751   5.549122   2.131450
    10  H    4.671269   3.998876   2.657742   4.659151   2.128976
    11  H    3.792586   4.072700   3.482737   5.161350   2.157592
    12  H    2.495190   2.979716   2.858988   4.018787   2.159611
    13  H    2.495190   2.979716   2.858988   4.018787   2.159611
                    6          7          8          9         10
     6  H    0.000000
     7  C    2.602094   0.000000
     8  C    3.519620   2.488512   0.000000
     9  H    3.692804   1.091103   2.729642   0.000000
    10  H    2.354515   1.091888   3.492040   1.861633   0.000000
    11  H    4.324589   2.609727   1.096739   2.384614   3.700524
    12  H    3.868042   3.217879   1.100357   3.498293   4.149543
    13  H    3.868042   3.217879   1.100357   3.498293   4.149543
                   11         12         13
    11  H    0.000000
    12  H    1.778078   0.000000
    13  H    1.778078   1.767812   0.000000
 Stoichiometry    C5H8
 Framework group  CS[SG(C5H6),X(H2)]
 Deg. of freedom    22
 Full point group                 CS      NOp   2
 RotChk:  IX=0 Diff= 3.01D-03
 Largest Abelian subgroup         CS      NOp   2
 Largest concise Abelian subgroup CS      NOp   2
                         Standard orientation:                         
 ---------------------------------------------------------------------
 Center     Atomic      Atomic             Coordinates (Angstroms)
 Number     Number       Type             X           Y           Z
 ---------------------------------------------------------------------
      1          1           0       -0.705317   -2.193055    0.000000
      2          6           0        0.359322   -1.954397    0.000000
      3          6           0        0.817592   -0.693908    0.000000
      4          1           0        1.049793   -2.799028    0.000000
      5          6           0        0.000000    0.524734    0.000000
      6          1           0        1.899220   -0.529970    0.000000
      7          6           0        0.604742    1.727290    0.000000
      8          6           0       -1.496805    0.394552    0.000000
      9          1           0        0.031937    2.655945    0.000000
     10          1           0        1.693061    1.815503    0.000000
     11          1           0       -1.981551    1.378349    0.000000
     12          1           0       -1.848126   -0.158683    0.883906
     13          1           0       -1.848126   -0.158683   -0.883906
 ---------------------------------------------------------------------
 Rotational constants (GHZ):      8.5249022      4.1540426      2.8425195
 Leave Link  202 at Tue Jun 28 22:36:06 2016, MaxMem=   268435456 cpu:         0.1
 (Enter /n/sw/g09_D.01/g09/l301.exe)
 Standard basis: CC-pVDZ (5D, 7F)
 Ernie: Thresh=  0.10000D-02 Tol=  0.10000D-05 Strict=F.
 Ernie:  10 primitive shells out of 150 were deleted.
 There are    84 symmetry adapted cartesian basis functions of A'  symmetry.
 There are    31 symmetry adapted cartesian basis functions of A"  symmetry.
 There are    79 symmetry adapted basis functions of A'  symmetry.
 There are    31 symmetry adapted basis functions of A"  symmetry.
   110 basis functions,   221 primitive gaussians,   115 cartesian basis functions
    19 alpha electrons       19 beta electrons
       nuclear repulsion energy       160.0351086421 Hartrees.
 IExCor= 1715 DFT=T Ex+Corr=B972 ExCW=0 ScaHFX=  0.210000
 ScaDFX=  1.000000  1.000000  1.000000  1.000000 ScalE2=  1.000000  1.000000
 IRadAn=      0 IRanWt=     -1 IRanGd=            0 ICorTp=0 IEmpDi=  4
 NAtoms=   13 NActive=   13 NUniq=   12 SFac= 1.17D+00 NAtFMM=   60 NAOKFM=F Big=F
 Integral buffers will be    131072 words long.
 Raffenetti 2 integral format.
 Two-electron integral symmetry is turned on.
 ------------------------------------------------------------------------------
 Polarizable Continuum Model (PCM)
 =================================
 Model                : PCM (using non-symmetric T matrix).
 Atomic radii         : SMD-Coulomb.
 Polarization charges : Total charges.
 Charge compensation  : None.
 Solution method      : On-the-fly selection.
 Cavity type          : VdW (van der Waals Surface) (Alpha=1.000).
 Cavity algorithm     : GePol (No added spheres)
                        Default sphere list used, NSphG=   13.
                        Lebedev-Laikov grids with approx.  5.0 points / Ang**2.
                        Smoothing algorithm: Karplus/York (Gamma=1.0000).
                        Polarization charges: spherical gaussians, with
                                              point-specific exponents (IZeta= 3).
                        Self-potential: point-specific (ISelfS= 7).
                        Self-field    : sphere-specific E.n sum rule (ISelfD= 2).
 1st derivatives      : Analytical E(r).r(x)/FMM algorithm (CHGder, D1EAlg=3).
                        Cavity 1st derivative terms included.
 Solvent              : o-Xylene, Eps=   2.545400 Eps(inf)=   2.266530
 ------------------------------------------------------------------------------
 Spheres list:
 ISph  on   Nord     Re0    Alpha      Xe            Ye            Ze
    1   H      1    1.2000  1.000     -0.705317     -2.193055      0.000000
    2   C      2    1.8500  1.000      0.359322     -1.954397      0.000000
    3   C      3    1.8500  1.000      0.817592     -0.693908      0.000000
    4   H      4    1.2000  1.000      1.049793     -2.799028      0.000000
    5   C      5    1.8500  1.000      0.000000      0.524734      0.000000
    6   H      6    1.2000  1.000      1.899220     -0.529970      0.000000
    7   C      7    1.8500  1.000      0.604742      1.727290      0.000000
    8   C      8    1.8500  1.000     -1.496805      0.394552      0.000000
    9   H      9    1.2000  1.000      0.031937      2.655945      0.000000
   10   H     10    1.2000  1.000      1.693061      1.815503      0.000000
   11   H     11    1.2000  1.000     -1.981551      1.378349      0.000000
   12   H     12    1.2000  1.000     -1.848126     -0.158683      0.883906
   13   H     13    1.2000  1.000     -1.848126     -0.158683     -0.883906
 ------------------------------------------------------------------------------
 GePol: Number of generator spheres                  =      13
 GePol: Total number of spheres                      =      13
 GePol: Number of exposed spheres                    =      13 (100.00%)
 GePol: Number of points                             =    1040
 GePol: Average weight of points                     =       0.11
 GePol: Minimum weight of points                     =   0.45D-06
 GePol: Maximum weight of points                     =    0.17992
 GePol: Number of points with low weight             =      35
 GePol: Fraction of low-weight points (<1% of avg)   =       3.37%
 GePol: Cavity surface area                          =    119.342 Ang**2
 GePol: Cavity volume                                =     93.251 Ang**3
 ------------------------------------------------------------------------------
 Atomic radii for non-electrostatic terms: SMD-CDS.
 ------------------------------------------------------------------------------
 PCM non-electrostatic energy =        -0.0017270724 Hartrees.
 Nuclear repulsion after PCM non-electrostatic terms =      160.0333815697 Hartrees.
 Leave Link  301 at Tue Jun 28 22:36:06 2016, MaxMem=   268435456 cpu:         0.3
 (Enter /n/sw/g09_D.01/g09/l302.exe)
 NPDir=0 NMtPBC=     1 NCelOv=     1 NCel=       1 NClECP=     1 NCelD=      1
         NCelK=      1 NCelE2=     1 NClLst=     1 CellRange=     0.0.
 One-electron integrals computed using PRISM.
 One-electron integral symmetry used in STVInt
 NBasis=   110 RedAO= T EigKep=  2.34D-03  NBF=    79    31
 NBsUse=   110 1.00D-06 EigRej= -1.00D+00 NBFU=    79    31
 Precomputing XC quadrature grid using
 IXCGrd= 4 IRadAn=           0 IRanWt=          -1 IRanGd=           0 AccXCQ= 0.00D+00.
 Generated NRdTot=       0 NPtTot=           0 NUsed=           0 NTot=          32
 NSgBfM=   115   115   115   115   115 MxSgAt=    13 MxSgA2=    13.
 Leave Link  302 at Tue Jun 28 22:36:07 2016, MaxMem=   268435456 cpu:         3.4
 (Enter /n/sw/g09_D.01/g09/l303.exe)
 DipDrv:  MaxL=1.
 Leave Link  303 at Tue Jun 28 22:36:07 2016, MaxMem=   268435456 cpu:         0.5
 (Enter /n/sw/g09_D.01/g09/l401.exe)
 Initial guess from the checkpoint file:  "checkpoint.chk"
 B after Tr=     0.000000    0.000000    0.000000
         Rot=    0.999999    0.000000    0.000000    0.001087 Ang=   0.12 deg.
 Guess basis will be translated and rotated to current coordinates.
 JPrj=2 DoOrth=T DoCkMO=T.
 Initial guess orbital symmetries:
       Occupied  (A') (A') (A') (A') (A') (A') (A') (A') (A') (A')
                 (A') (A') (A") (A') (A') (A') (A') (A") (A")
       Virtual   (A') (A') (A') (A') (A') (A') (A') (A') (A') (A')
                 (A') (A') (A') (A') (A') (A') (A') (A') (A') (A')
                 (A') (A') (A') (A') (A') (A') (A') (A') (A') (A')
                 (A') (A') (A') (A') (A') (A') (A') (A') (A') (A')
                 (A') (A') (A') (A') (A') (A') (A') (A') (A') (A')
                 (A') (A') (A') (A') (A') (A') (A') (A') (A') (A')
                 (A') (A') (A') (A") (A") (A") (A") (A") (A") (A")
                 (A") (A") (A") (A") (A") (A") (A") (A") (A") (A")
                 (A") (A") (A") (A") (A") (A") (A") (A") (A") (A")
                 (A")
 The electronic state of the initial guess is 1-A'.
 Leave Link  401 at Tue Jun 28 22:36:08 2016, MaxMem=   268435456 cpu:         2.0
 (Enter /n/sw/g09_D.01/g09/l502.exe)
 Closed shell SCF:
 Using DIIS extrapolation, IDIIS=  1040.
 Integral symmetry usage will be decided dynamically.
 Keep R1 ints in memory in symmetry-blocked form, NReq=28397239.
 IVT=       59963 IEndB=       59963 NGot=   268435456 MDV=   258676893
[...]
     38 -0.933365D-02 -0.120687D-01 -0.221843D-01  0.538168D-02  0.781995D-02
     39  0.847127D-03  0.202734D-02  0.938884D-03 -0.777265D-02 -0.136741D-01
               36            37            38            39 
     36  0.236646D+00
     37  0.777265D-02  0.773771D-01
     38  0.136741D-01  0.460554D-01  0.120477D+00
     39 -0.197185D-01  0.730817D-01  0.121858D+00  0.236646D+00
 FormGI is forming the generalized inverse of G from B-inverse, IUseBI=4.
 Leave Link  716 at Tue Jun 28 22:39:04 2016, MaxMem=   268435456 cpu:         2.0
 (Enter /n/sw/g09_D.01/g09/l103.exe)

 GradGradGradGradGradGradGradGradGradGradGradGradGradGradGradGradGradGrad
 Berny optimization.
 Red2BG is reusing G-inverse.
 Internal  Forces:  Max     0.000145826 RMS     0.000045786
 Search for a local minimum.
 Step number   1 out of a maximum of    2
 All quantities printed in internal units (Hartrees-Bohrs-Radians)
 Second derivative matrix not updated -- analytic derivatives used.
 ITU=  0
     Eigenvalues ---    0.00265   0.00835   0.01923   0.02368   0.02939
     Eigenvalues ---    0.03207   0.03775   0.04095   0.05450   0.05656
     Eigenvalues ---    0.10183   0.10293   0.11026   0.11998   0.12366
     Eigenvalues ---    0.12910   0.14227   0.14263   0.18175   0.19365
     Eigenvalues ---    0.22178   0.33325   0.34116   0.34666   0.35143
     Eigenvalues ---    0.35756   0.36048   0.36505   0.36713   0.36816
     Eigenvalues ---    0.37530   0.61699   0.62961
 Angle between quadratic step and forces=  27.98 degrees.
 Linear search not attempted -- first point.
 Iteration  1 RMS(Cart)=  0.00040893 RMS(Int)=  0.00000018
 Iteration  2 RMS(Cart)=  0.00000018 RMS(Int)=  0.00000004
 ITry= 1 IFail=0 DXMaxC= 1.77D-03 DCOld= 1.00D+10 DXMaxT= 3.00D-01 DXLimC= 3.00D+00 Rises=F
 ClnCor:  largest displacement from symmetrization is 4.94D-12 for atom     4.
 Variable       Old X    -DE/DX   Delta X   Delta X   Delta X     New X
                                 (Linear)    (Quad)   (Total)
    R1        2.06181  -0.00006   0.00000  -0.00019  -0.00019   2.06162
    R2        2.53452   0.00004   0.00000   0.00010   0.00010   2.53462
    R3        2.06158  -0.00007   0.00000  -0.00020  -0.00020   2.06138
    R4        2.77317  -0.00001   0.00000   0.00002   0.00002   2.77319
    R5        2.06732  -0.00006   0.00000  -0.00017  -0.00017   2.06716
    R6        2.54367   0.00006   0.00000   0.00016   0.00016   2.54383
    R7        2.83923  -0.00015   0.00000  -0.00065  -0.00065   2.83858
    R8        2.06189  -0.00007   0.00000  -0.00021  -0.00021   2.06168
    R9        2.06337  -0.00010   0.00000  -0.00033  -0.00033   2.06304
   R10        2.07254  -0.00003   0.00000  -0.00005  -0.00005   2.07248
   R11        2.07937  -0.00001   0.00000   0.00001   0.00001   2.07938
   R12        2.07937  -0.00001   0.00000   0.00001   0.00001   2.07938
    A1        2.14003   0.00000   0.00000  -0.00001  -0.00001   2.14002
    A2        2.03558   0.00005   0.00000   0.00050   0.00050   2.03608
    A3        2.10757  -0.00005   0.00000  -0.00049  -0.00049   2.10708
    A4        2.20195   0.00003   0.00000   0.00020   0.00020   2.20215
    A5        2.06993  -0.00003   0.00000  -0.00030  -0.00030   2.06963
    A6        2.01130   0.00001   0.00000   0.00010   0.00010   2.01140
    A7        2.08471  -0.00005   0.00000  -0.00029  -0.00029   2.08443
    A8        2.07497  -0.00002   0.00000  -0.00014  -0.00014   2.07484
    A9        2.12350   0.00007   0.00000   0.00042   0.00042   2.12392
   A10        2.12295  -0.00005   0.00000  -0.00051  -0.00051   2.12244
   A11        2.11762  -0.00006   0.00000  -0.00062  -0.00062   2.11701
   A12        2.04261   0.00011   0.00000   0.00113   0.00113   2.04374
   A13        1.94186   0.00005   0.00000   0.00057   0.00057   1.94243
   A14        1.94083   0.00004   0.00000   0.00032   0.00032   1.94115
   A15        1.94083   0.00004   0.00000   0.00032   0.00032   1.94115
   A16        1.88587  -0.00004   0.00000  -0.00032  -0.00032   1.88555
   A17        1.88587  -0.00004   0.00000  -0.00032  -0.00032   1.88555
   A18        1.86560  -0.00006   0.00000  -0.00066  -0.00066   1.86494
    D1        0.00000   0.00000   0.00000   0.00000   0.00000   0.00000
    D2        3.14159   0.00000   0.00000   0.00000   0.00000   3.14159
    D3        3.14159   0.00000   0.00000   0.00000   0.00000   3.14159
    D4        0.00000   0.00000   0.00000   0.00000   0.00000   0.00000
    D5        3.14159   0.00000   0.00000   0.00000   0.00000   3.14159
    D6        0.00000   0.00000   0.00000   0.00000   0.00000   0.00000
    D7        0.00000   0.00000   0.00000   0.00000   0.00000   0.00000
    D8        3.14159   0.00000   0.00000   0.00000   0.00000   3.14159
    D9        3.14159   0.00000   0.00000   0.00000   0.00000   3.14159
   D10        0.00000   0.00000   0.00000   0.00000   0.00000   0.00000
   D11        0.00000   0.00000   0.00000   0.00000   0.00000   0.00000
   D12        3.14159   0.00000   0.00000   0.00000   0.00000   3.14159
   D13        3.14159   0.00000   0.00000   0.00000   0.00000   3.14159
   D14        1.03843  -0.00001   0.00000  -0.00020  -0.00020   1.03822
   D15       -1.03843   0.00001   0.00000   0.00020   0.00020  -1.03822
   D16        0.00000   0.00000   0.00000   0.00000   0.00000   0.00000
   D17       -2.10317  -0.00001   0.00000  -0.00020  -0.00020  -2.10337
   D18        2.10317   0.00001   0.00000   0.00020   0.00020   2.10337
         Item               Value     Threshold  Converged?
 Maximum Force            0.000146     0.000450     YES
 RMS     Force            0.000046     0.000300     YES
 Maximum Displacement     0.001770     0.001800     YES
 RMS     Displacement     0.000409     0.001200     YES
 Predicted change in Energy=-3.096361D-07
 Optimization completed.
    -- Stationary point found.
                           ----------------------------
                           !   Optimized Parameters   !
                           ! (Angstroms and Degrees)  !
 --------------------------                            --------------------------
 ! Name  Definition              Value          Derivative Info.                !
 --------------------------------------------------------------------------------
 ! R1    R(1,2)                  1.0911         -DE/DX =   -0.0001              !
 ! R2    R(2,3)                  1.3412         -DE/DX =    0.0                 !
 ! R3    R(2,4)                  1.0909         -DE/DX =   -0.0001              !
 ! R4    R(3,5)                  1.4675         -DE/DX =    0.0                 !
 ! R5    R(3,6)                  1.094          -DE/DX =   -0.0001              !
 ! R6    R(5,7)                  1.3461         -DE/DX =    0.0001              !
 ! R7    R(5,8)                  1.5025         -DE/DX =   -0.0001              !
 ! R8    R(7,9)                  1.0911         -DE/DX =   -0.0001              !
 ! R9    R(7,10)                 1.0919         -DE/DX =   -0.0001              !
 ! R10   R(8,11)                 1.0967         -DE/DX =    0.0                 !
 ! R11   R(8,12)                 1.1004         -DE/DX =    0.0                 !
 ! R12   R(8,13)                 1.1004         -DE/DX =    0.0                 !
 ! A1    A(1,2,3)              122.6146         -DE/DX =    0.0                 !
 ! A2    A(1,2,4)              116.6304         -DE/DX =    0.0                 !
 ! A3    A(3,2,4)              120.755          -DE/DX =    0.0                 !
 ! A4    A(2,3,5)              126.1626         -DE/DX =    0.0                 !
 ! A5    A(2,3,6)              118.5981         -DE/DX =    0.0                 !
 ! A6    A(5,3,6)              115.2393         -DE/DX =    0.0                 !
 ! A7    A(3,5,7)              119.4452         -DE/DX =    0.0                 !
 ! A8    A(3,5,8)              118.8871         -DE/DX =    0.0                 !
 ! A9    A(7,5,8)              121.6677         -DE/DX =    0.0001              !
 ! A10   A(5,7,9)              121.6363         -DE/DX =    0.0                 !
 ! A11   A(5,7,10)             121.3309         -DE/DX =   -0.0001              !
 ! A12   A(9,7,10)             117.0328         -DE/DX =    0.0001              !
 ! A13   A(5,8,11)             111.2601         -DE/DX =    0.0001              !
 ! A14   A(5,8,12)             111.2011         -DE/DX =    0.0                 !
 ! A15   A(5,8,13)             111.2011         -DE/DX =    0.0                 !
 ! A16   A(11,8,12)            108.0522         -DE/DX =    0.0                 !
 ! A17   A(11,8,13)            108.0522         -DE/DX =    0.0                 !
 ! A18   A(12,8,13)            106.8909         -DE/DX =   -0.0001              !
 ! D1    D(1,2,3,5)              0.0            -DE/DX =    0.0                 !
 ! D2    D(1,2,3,6)            180.0            -DE/DX =    0.0                 !
 ! D3    D(4,2,3,5)            180.0            -DE/DX =    0.0                 !
 ! D4    D(4,2,3,6)              0.0            -DE/DX =    0.0                 !
 ! D5    D(2,3,5,7)            180.0            -DE/DX =    0.0                 !
 ! D6    D(2,3,5,8)              0.0            -DE/DX =    0.0                 !
 ! D7    D(6,3,5,7)              0.0            -DE/DX =    0.0                 !
 ! D8    D(6,3,5,8)            180.0            -DE/DX =    0.0                 !
 ! D9    D(3,5,7,9)            180.0            -DE/DX =    0.0                 !
 ! D10   D(3,5,7,10)             0.0            -DE/DX =    0.0                 !
 ! D11   D(8,5,7,9)              0.0            -DE/DX =    0.0                 !
 ! D12   D(8,5,7,10)           180.0            -DE/DX =    0.0                 !
 ! D13   D(3,5,8,11)           180.0            -DE/DX =    0.0                 !
 ! D14   D(3,5,8,12)            59.4974         -DE/DX =    0.0                 !
 ! D15   D(3,5,8,13)           -59.4974         -DE/DX =    0.0                 !
 ! D16   D(7,5,8,11)             0.0            -DE/DX =    0.0                 !
 ! D17   D(7,5,8,12)          -120.5026         -DE/DX =    0.0                 !
 ! D18   D(7,5,8,13)           120.5026         -DE/DX =    0.0                 !
 --------------------------------------------------------------------------------
 GradGradGradGradGradGradGradGradGradGradGradGradGradGradGradGradGradGrad

 Leave Link  103 at Tue Jun 28 22:39:08 2016, MaxMem=   268435456 cpu:         6.8
 (Enter /n/sw/g09_D.01/g09/l9999.exe)
 1\1\GINC-HOLYMEISSNER02\Freq\RB972\CC-pVDZ\C5H8\ROOT\28-Jun-2016\0\\#P
  Geom=AllCheck Guess=TCheck SCRF=Check GenChk RB972/CC-pVDZ Freq\\titl
 e\\0,1\H,-0.6872177834,-2.1992173441,0.\C,0.3752839597,-1.9512190143,0
 .\C,0.8224676461,-0.6867544124,0.\H,1.0731461932,-2.7897535199,0.\C,-0
 .0057948242,0.5246615095,0.\H,1.9026142421,-0.5133234975,0.\C,0.588363
 6696,1.7324810532,0.\C,-1.5013986801,0.3813397278,0.\H,0.0074249553,2.
 6560700497,0.\H,1.6758657013,1.8302481588,0.\H,-1.9947659472,1.3608422
 995,0.\H,-1.8478480662,-0.1749590052,0.8839060165\H,-1.8478480662,-0.1
 749590052,-0.8839060165\\Version=EM64L-G09RevD.01\State=1-A'\HF=-195.2
 55059\RMSD=3.843e-09\RMSF=8.552e-05\ZeroPoint=0.1136511\Thermal=0.1195
 123\Dipole=-0.1318546,-0.0088357,0.\DipoleDeriv=-0.078987,-0.0434483,0
 .,-0.0063249,0.0711173,0.,0.,0.,0.1490624,0.0803593,-0.018742,0.,-0.03
 92615,-0.2843187,0.,0.,0.,-0.3142953,0.0469402,-0.084912,0.,0.0299535,
 0.3238023,0.,0.,0.,-0.117635,-0.0034773,0.0944836,0.,0.0517713,-0.0413
 368,0.,0.,0.,0.1364182,0.3015028,0.0156276,0.,0.0570274,0.1553795,0.,0
 .,0.,-0.0688278,-0.129718,0.0067481,0.,-0.0343365,0.0295774,0.,0.,0.,0
 .1270417,-0.0145355,0.0023158,0.,-0.1149248,-0.2175375,0.,0.,0.,-0.311
 5729,-0.0529996,-0.0031047,0.,-0.022143,0.0081995,0.,0.,0.,0.1155282,-
 0.0002055,0.1008745,0.,0.0498858,-0.0519065,0.,0.,0.,0.1311496,-0.1176
 249,-0.0302486,0.,0.0196698,0.0537877,0.,0.,0.,0.1567458,-0.0049281,0.
 0502885,0.,0.11933,-0.0932415,0.,0.,0.,0.085063,-0.0131632,-0.0449413,
 0.023576,-0.0553235,0.0232386,0.0913826,0.0677318,0.094959,-0.044339,-
 0.0131632,-0.0449413,-0.023576,-0.0553235,0.0232386,-0.0913826,-0.0677
 318,-0.094959,-0.044339\Polar=65.3670398,9.4913504,108.6217605,0.,0.,3
 2.6000682\PG=CS [SG(C5H6),X(H2)]\NImag=0\\0.35120554,0.06857205,0.0667
 2472,0.,0.,0.02258721,-0.33288527,-0.05845718,0.,0.67355414,-0.0633336
 2,-0.06883626,0.,0.06274820,0.83264077,0.,0.,-0.03455692,0.,0.,0.10485
 628,-0.00695889,-0.03029744,0.,-0.16682213,-0.15040999,0.,0.66882624,0
 .00034212,-0.00027912,0.,-0.13700723,-0.49609838,0.,0.10685842,0.80458
 595,0.,0.,0.00478471,0.,0.,-0.04995816,0.,0.,0.13753000,-0.01182343,0.
 02071596,0.,-0.18013716,0.14924841,0.,0.00900859,-0.01261401,0.,0.1814
 1200,-0.00688039,0.00643230,0.,0.14287306,-0.22276187,0.,0.02211167,-0
 .01793070,0.,-0.15482493,0.23652098,0.,0.,0.00237806,0.,0.,-0.03270496
 ,0.,0.,0.00415874,0.,0.,0.02246094,-0.00074649,-0.00064057,0.,0.015636
 52,-0.00409118,0.,-0.16279957,0.07394455,0.,-0.00054403,-0.00408014,0.
 ,0.62293118,0.00133162,0.00148599,0.,0.01109426,-0.04527004,0.,0.08088
 704,-0.17852019,0.,-0.00229841,-0.00215904,0.,0.11125536,0.77106563,0.
 ,0.,-0.00726196,0.,0.,0.00608325,0.,0.,-0.07218215,0.,0.,0.01248807,0.
 ,0.,0.17681009,0.00109593,-0.00152191,0.,-0.00852665,0.00125917,0.,-0.
 32834336,-0.04292813,0.,0.00140390,-0.00001183,0.,-0.01635997,-0.00616
 189,0.,0.34897578,-0.00176573,-0.00475281,0.,-0.03111628,-0.00365088,0
 .,-0.04197248,-0.06025616,0.,-0.00014391,0.00107574,0.,0.02462956,0.00
 435763,0.,0.04670225,0.06666657,0.,0.,0.01132298,0.,0.,0.00560151,0.,0
 .,-0.04101833,0.,0.,-0.00746388,0.,0.,0.00262752,0.,0.,0.02720058,0.00
 008004,0.00015040,0.,-0.00261192,0.00741329,0.,0.01330623,0.01053053,0
 .,0.00049026,0.00131281,0.,-0.19243986,-0.16531792,0.,0.00092167,0.001
 88786,0.,0.69225365,-0.00016142,0.00004253,0.,0.00599596,0.00502812,0.
 ,-0.00824931,-0.05300576,0.,-0.00011556,-0.00095130,0.,-0.17455067,-0.
 44453196,0.,-0.00147099,0.00077111,0.,0.06908888,0.80976073,0.,0.,0.00
 016857,0.,0.,0.00196241,0.,0.,0.00632156,0.,0.,-0.00018138,0.,0.,-0.05
 383656,0.,0.,-0.00131087,0.,0.,0.10491261,-0.00020208,0.00018025,0.,0.
 00012664,-0.00241930,0.,-0.02174639,0.00483056,0.,-0.00020307,-0.00051
 172,0.,-0.22788042,-0.01484219,0.,0.00070937,0.00143923,0.,-0.02079828
 ,-0.00681667,0.,0.50672547,0.00081070,-0.00052634,0.,0.00156722,-0.000
 71631,0.,0.02747554,0.00444125,0.,0.00009922,0.00009813,0.,-0.00644162
 ,-0.08666624,0.,0.00354725,-0.00441184,0.,-0.03284286,-0.00251831,0.,-
 0.01906901,0.59221039,0.,0.,0.00069289,0.,0.,-0.00147094,0.,0.,0.00347
 145,0.,0.,-0.00027889,0.,0.,-0.07637991,0.,0.,0.00259384,0.,0.,0.00757
 520,0.,0.,0.54405098,0.00002422,0.00010299,0.,0.00085402,-0.00052172,0
 .,-0.00113246,-0.00175546,0.,-0.00002396,-0.00020632,0.,0.00784505,-0.
 01341690,0.,0.00038372,-0.00023492,0.,-0.14169931,0.13613192,0.,0.0011
 6814,-0.00145457,0.,0.14175510,-0.00009375,-0.00001696,0.,0.00147015,-
 0.00080490,0.,-0.00447766,-0.00290265,0.,-0.00017602,-0.00046520,0.,0.
 01851445,-0.01733185,0.,0.00011149,0.00012607,0.,0.12996612,-0.2605989
 4,0.,0.00202847,0.00077825,0.,-0.14132767,0.27608631,0.,0.,0.00038852,
 0.,0.,-0.00029363,0.,0.,0.01201434,0.,0.,-0.00157096,0.,0.,0.00501140,
 0.,0.,-0.00010727,0.,0.,-0.03241510,0.,0.,-0.00718485,0.,0.,0.02139985
 ,0.00006323,0.00016058,0.,0.00050262,-0.00028400,0.,0.00056796,0.00259
 811,0.,-0.00003257,-0.00010774,0.,-0.01120543,0.00360841,0.,0.00070574
 ,-0.00061226,0.,-0.34314487,-0.02459624,0.,0.00110679,-0.00223677,0.,-
 0.00926110,-0.00492207,0.,0.36141763,0.00001820,0.00010658,0.,0.000276
 08,0.00009109,0.,-0.00224833,0.00076514,0.,0.00000429,0.00003131,0.,-0
 .02787124,0.00133313,0.,0.00075111,-0.00022173,0.,-0.01876173,-0.05649
 006,0.,-0.00018347,-0.00380918,0.,0.02259705,0.00428449,0.,0.02713076,
 0.05384788,0.,0.,0.00009203,0.,0.,0.00024447,0.,0.,-0.00732209,0.,0.,0
 .00051159,0.,0.,0.00270033,0.,0.,0.00023801,0.,0.,-0.03286638,0.,0.,0.
 01241128,0.,0.,0.00205766,0.,0.,0.02272914,0.00045391,0.00005812,0.,-0
 .00024776,-0.00084652,0.,-0.00572080,-0.00245198,0.,0.00019826,0.00017
 844,0.,-0.01400993,0.03046425,0.,-0.00103574,0.00147283,0.,0.00135111,
 0.00163010,0.,-0.09905147,0.10818541,0.,0.00002952,-0.00083483,0.,0.00
 045313,-0.00011522,0.,0.11021735,0.00033022,0.00021609,0.,-0.00010332,
 -0.00011725,0.,-0.00123668,0.00047618,0.,0.00014227,0.00004301,0.,-0.0
 0378995,0.00306479,0.,-0.00005107,0.00021393,0.,-0.00165559,0.00082998
 ,0.,0.11287131,-0.27266351,0.,0.00023103,0.00046576,0.,-0.00004954,0.0
 0029017,0.,-0.11907330,0.29131831,0.,0.,-0.00034766,0.,0.,0.00007182,0
 .,0.,0.00143193,0.,0.,0.00008955,0.,0.,-0.00196775,0.,0.,0.00038314,0.
 ,0.,-0.00021717,0.,0.,-0.04352771,0.,0.,0.00041795,0.,0.,-0.00020919,0
 .,0.,0.04199732,-0.00015335,0.00048838,0.00027947,0.00027847,0.0006186
 3,-0.00004075,0.00090729,-0.00117374,-0.00059064,0.00012560,0.00007355
 ,-0.00002245,-0.01021353,-0.01830182,0.02736096,0.00003480,-0.00014308
 ,-0.00048546,-0.00385435,0.00155700,-0.00005333,-0.06997735,-0.0398202
 5,0.06761520,0.00002853,-0.00012933,0.00092439,-0.00058656,-0.00079875
 ,-0.00229132,0.00368120,0.00619231,-0.01184168,0.07737707,0.00041500,-
 0.00029836,-0.00028408,0.00032953,0.00024795,-0.00023228,0.00077961,-0
 .00063779,-0.00005886,-0.00001866,0.00003332,0.00003458,-0.00343927,-0
 .00341393,0.00084156,-0.00011272,0.00004119,0.00006614,-0.00088590,0.0
 0083193,0.00035497,-0.03875373,-0.11310814,0.11275153,-0.00007271,0.00
 018981,0.00064809,-0.00034462,-0.00011441,-0.00077392,-0.00933365,-0.0
 1206873,0.02218429,0.04605544,0.12047720,-0.00016956,-0.00039375,-0.00
 012422,0.00017928,0.00031356,0.00008244,0.00003779,0.00075569,0.000384
 01,-0.00027748,-0.00010134,0.00005656,-0.00126475,-0.00155182,0.002953
 83,0.00004772,-0.00014323,-0.00003362,-0.00003018,-0.00077275,-0.00005
 644,0.06777304,0.11216876,-0.22097667,-0.00000821,-0.00004208,0.000141
 05,-0.00013142,-0.00002196,-0.00029342,-0.00084713,-0.00202734,0.00093
 888,-0.07308175,-0.12185789,0.23664612,-0.00015335,0.00048838,-0.00027
 947,0.00027847,0.00061863,0.00004075,0.00090729,-0.00117374,0.00059064
 ,0.00012560,0.00007355,0.00002245,-0.01021353,-0.01830182,-0.02736096,
 0.00003480,-0.00014308,0.00048546,-0.00385435,0.00155700,0.00005333,-0
 .06997735,-0.03982025,-0.06761520,0.00002853,-0.00012933,-0.00092439,-
 0.00058656,-0.00079875,0.00229132,0.00368120,0.00619231,0.01184168,0.0
 0235218,0.00538168,0.00777265,0.07737707,0.00041500,-0.00029836,0.0002
 8408,0.00032953,0.00024795,0.00023228,0.00077961,-0.00063779,0.0000588
 6,-0.00001866,0.00003332,-0.00003458,-0.00343927,-0.00341393,-0.000841
 56,-0.00011272,0.00004119,-0.00006614,-0.00088590,0.00083193,-0.000354
 97,-0.03875373,-0.11310814,-0.11275153,-0.00007271,0.00018981,-0.00064
 809,-0.00034462,-0.00011441,0.00077392,-0.00933365,-0.01206873,-0.0221
 8429,0.00538168,0.00781995,0.01367414,0.04605544,0.12047720,0.00016956
 ,0.00039375,-0.00012422,-0.00017928,-0.00031356,0.00008244,-0.00003779
 ,-0.00075569,0.00038401,0.00027748,0.00010134,0.00005656,0.00126475,0.
 00155182,0.00295383,-0.00004772,0.00014323,-0.00003362,0.00003018,0.00
 077275,-0.00005644,-0.06777304,-0.11216876,-0.22097667,0.00000821,0.00
 004208,0.00014105,0.00013142,0.00002196,-0.00029342,0.00084713,0.00202
 734,0.00093888,-0.00777265,-0.01367414,-0.01971852,0.07308175,0.121857
 89,0.23664612\\-0.00004856,-0.00003917,0.,0.00006145,0.00016101,0.,-0.
 00006245,-0.00006953,0.,0.00001713,-0.00008191,0.,0.00020760,0.0000285
 6,0.,0.00005921,0.00003620,0.,-0.00019518,-0.00022078,0.,-0.00025162,-
 0.00004901,0.,0.00002125,0.00009892,0.,0.00009137,0.00009676,0.,0.0000
 2470,0.00003801,0.,0.00003755,0.00000047,0.00003013,0.00003755,0.00000
 047,-0.00003013\\\@


 IBM COMPATIBILITY IS LIKE PREGNANCY. YOU ARE OR
 OR YOU ARE NOT. -- ADAM OSBORNE
 Job cpu time:       0 days  0 hours  6 minutes 51.0 seconds.
 File lengths (MBytes):  RWF=     39 Int=      0 D2E=      0 Chk=      6 Scr=      1
 Normal termination of Gaussian 09 at Tue Jun 28 22:39:08 2016.
