
                                 *****************
                                 * O   R   C   A *
                                 *****************

           --- An Ab Initio, DFT and Semiempirical electronic structure package ---

                  #######################################################
                  #                        -***-                        #
                  #          Department of theory and spectroscopy      #
                  #               Directorship: Frank Neese             #
                  #        Max Planck Institute fuer Kohlenforschung    #
                  #                Kaiser Wilhelm Platz 1               #
                  #                 D-45470 Muelheim/Ruhr               #
                  #                      Germany                        #
                  #                                                     #
                  #                  All rights reserved                #
                  #                        -***-                        #
                  #######################################################


                         Program Version 4.2.1 -  RELEASE  -


 With contributions from (in alphabetic order):
   Daniel Aravena         : Magnetic Suceptibility
   Michael Atanasov       : Ab Initio Ligand Field Theory (pilot matlab implementation)
   Alexander A. Auer      : GIAO ZORA, VPT2
   Ute Becker             : Parallelization
   Giovanni Bistoni       : ED, misc. LED, open-shell LED, HFLD
   Martin Brehm           : Molecular dynamics
   Dmytro Bykov           : SCF Hessian
   Vijay G. Chilkuri      : MRCI spin determinant printing, contributions to CSF-ICE
   Dipayan Datta          : RHF DLPNO-CCSD density
   Achintya Kumar Dutta   : EOM-CC, STEOM-CC
   Dmitry Ganyushin       : Spin-Orbit,Spin-Spin,Magnetic field MRCI
   Miquel Garcia          : C-PCM Hessian, Gaussian charge scheme
   Yang Guo               : DLPNO-NEVPT2, CIM, IAO-localization
   Andreas Hansen         : Spin unrestricted coupled pair/coupled cluster methods
   Benjamin Helmich-Paris : CASSCF linear response (MC-RPA)
   Lee Huntington         : MR-EOM, pCC
   Robert Izsak           : Overlap fitted RIJCOSX, COSX-SCS-MP3, EOM
   Christian Kollmar      : KDIIS, OOCD, Brueckner-CCSD(T), CCSD density
   Simone Kossmann        : Meta GGA functionals, TD-DFT gradient, OOMP2, MP2 Hessian
   Martin Krupicka        : AUTO-CI
   Lucas Lang             : DCDCAS
   Dagmar Lenk            : GEPOL surface, SMD
   Dimitrios Liakos       : Extrapolation schemes; Compound Job, initial MDCI parallelization
   Dimitrios Manganas     : Further ROCIS development; embedding schemes
   Dimitrios Pantazis     : SARC Basis sets
   Taras Petrenko         : DFT Hessian,TD-DFT gradient, ASA, ECA, R-Raman, ABS, FL, XAS/XES, NRVS
   Peter Pinski           : DLPNO-MP2, DLPNO-MP2 Gradient
   Christoph Reimann      : Effective Core Potentials
   Marius Retegan         : Local ZFS, SOC
   Christoph Riplinger    : Optimizer, TS searches, QM/MM, DLPNO-CCSD(T), (RO)-DLPNO pert. Triples
   Tobias Risthaus        : Range-separated hybrids, TD-DFT gradient, RPA, STAB
   Michael Roemelt        : Original ROCIS implementation
   Masaaki Saitow         : Open-shell DLPNO-CCSD energy and density
   Barbara Sandhoefer     : DKH picture change effects
   Avijit Sen             : IP-ROCIS
   Kantharuban Sivalingam : CASSCF convergence, NEVPT2, FIC-MRCI
   Bernardo de Souza      : ESD, SOC TD-DFT
   Georgi Stoychev        : AutoAux, RI-MP2 NMR
   Willem Van den Heuvel  : Paramagnetic NMR
   Boris Wezisla          : Elementary symmetry handling
   Frank Wennmohs         : Technical directorship


 We gratefully acknowledge several colleagues who have allowed us to
 interface, adapt or use parts of their codes:
   Stefan Grimme, W. Hujo, H. Kruse,             : VdW corrections, initial TS optimization,
                  C. Bannwarth                     DFT functionals, gCP, sTDA/sTD-DF
   Ed Valeev, F. Pavosevic, A. Kumar             : LibInt (2-el integral package), F12 methods
   Garnet Chan, S. Sharma, J. Yang, R. Olivares  : DMRG
   Ulf Ekstrom                                   : XCFun DFT Library
   Mihaly Kallay                                 : mrcc  (arbitrary order and MRCC methods)
   Andreas Klamt, Michael Diedenhofen            : otool_cosmo (COSMO solvation model)
   Jiri Pittner, Ondrej Demel                    : Mk-CCSD
   Frank Weinhold                                : gennbo (NPA and NBO analysis)
   Christopher J. Cramer and Donald G. Truhlar   : smd solvation model
   Lars Goerigk                                  : TD-DFT with DH, B97 family of functionals
   V. Asgeirsson, H. Jonsson                     : NEB implementation
   FAccTs GmbH                                   : IRC, NEB, NEB-TS, Multilevel, MM, QM/MM, CI optimization
   S Lehtola, MJT Oliveira, MAL Marques          : LibXC Library


 Your calculation uses the libint2 library for the computation of 2-el integrals
 For citations please refer to: http://libint.valeyev.net

 Your ORCA version has been built with support for libXC version: 4.2.3
 For citations please refer to: https://tddft.org/programs/libxc/

 This ORCA versions uses:
   CBLAS   interface :  Fast vector & matrix operations
   LAPACKE interface :  Fast linear algebra routines
   SCALAPACK package :  Parallel linear algebra routines




***************************************
The coordinates will be read from file: claisen_gs.xyz
***************************************


----- Orbital basis set information -----
Your calculation utilizes the basis: 6-31G*
   H-He, Li-Ne : W. J. Hehre, R. Ditchfield and J.A. Pople, J. Chem. Phys. 56, 2257 (1972).
                 Note: He and Ne are unpublished basis sets taken from the Gaussian program.
                 Note: Li and B from J. D. Dill and J. A. Pople, J. Chem. Phys. 62, 2921 (1975).
   Na - Ar     : M. M. Francl, W. J. Pietro, W. J. Hehre, J. S. Binkley, M. S. Gordon, 
                 D. J. DeFrees and J. A. Pople, J. Chem. Phys. 77, 3654 (1982).
   K - Zn      : V. A. Rassolov, J. A. Pople, M. A. Ratner, and T. L. Windus, J. Chem. Phys. 109, 1223 (1998).

----- AuxJ basis set information -----
Your calculation utilizes the auxiliary basis: def2/J
   F. Weigend, Phys. Chem. Chem. Phys. 8, 1057 (2006).

================================================================================
                                        WARNINGS
                       Please study these warnings very carefully!
================================================================================


INFO   : the flag for use of LIBINT has been found!

================================================================================
                                       INPUT FILE
================================================================================
NAME = claisen_gs_freq.inp
|  1> !B3LYP 6-31G* RIJCOSX def2/J Freq
|  2> !pal4
|  3> *xyzfile 0 1 claisen_gs.xyz
|  4> 
|  5>                          ****END OF INPUT****
================================================================================

                       ****************************
                       * Single Point Calculation *
                       ****************************

---------------------------------
CARTESIAN COORDINATES (ANGSTROEM)
---------------------------------
  C      2.533366    0.354528   -0.000003
  C      1.645119   -0.643361   -0.000007
  O      0.289757   -0.572633   -0.000001
  C     -0.300955    0.716222   -0.000005
  C     -1.797864    0.595382   -0.000005
  C     -2.478428   -0.549716   -0.000009
  H      3.589823    0.107677   -0.000008
  H      2.263112    1.404966    0.000008
  H      1.954434   -1.685673   -0.000016
  H      0.038878    1.281578   -0.884124
  H      0.038876    1.281582    0.884111
  H     -2.323822    1.550451    0.000000
  H     -3.565344   -0.560946   -0.000007
  H     -1.969201   -1.507986   -0.000015

----------------------------
CARTESIAN COORDINATES (A.U.)
----------------------------
  NO LB      ZA    FRAG     MASS         X           Y           Z
   0 C     6.0000    0    12.011    4.787367    0.669960   -0.000005
   1 C     6.0000    0    12.011    3.108824   -1.215776   -0.000014
   2 O     8.0000    0    15.999    0.547561   -1.082119   -0.000003
   3 C     6.0000    0    12.011   -0.568723    1.353463   -0.000010
   4 C     6.0000    0    12.011   -3.397471    1.125108   -0.000009
   5 C     6.0000    0    12.011   -4.683550   -1.038813   -0.000017
   6 H     1.0000    0     1.008    6.783782    0.203480   -0.000016
   7 H     1.0000    0     1.008    4.276662    2.655002    0.000016
   8 H     1.0000    0     1.008    3.693346   -3.185460   -0.000030
   9 H     1.0000    0     1.008    0.073468    2.421830   -1.670751
  10 H     1.0000    0     1.008    0.073465    2.421839    1.670729
  11 H     1.0000    0     1.008   -4.391386    2.929928    0.000001
  12 H     1.0000    0     1.008   -6.737525   -1.060035   -0.000013
  13 H     1.0000    0     1.008   -3.721251   -2.849680   -0.000028

--------------------------------
INTERNAL COORDINATES (ANGSTROEM)
--------------------------------
 C      0   0   0     0.000000000000     0.00000000     0.00000000
 C      1   0   0     1.335950392108     0.00000000     0.00000000
 O      2   1   0     1.357206102213   128.68592067     0.00000000
 C      3   2   1     1.417775206682   117.61030101     0.00000000
 C      4   3   2     1.501778733094   110.00781678   179.99970937
 C      5   4   3     1.332071979257   125.33946678     0.00000000
 H      1   2   3     1.084913407156   118.52140589   179.99996628
 H      1   2   3     1.084646877865   123.89888876     0.00000000
 H      2   1   3     1.087239968100   121.79814808   180.00009114
 H      4   3   2     1.103077097892   109.72851114    58.37273624
 H      4   3   2     1.103077297429   109.72854012   301.62655603
 H      5   4   3     1.090315814059   114.22632022   179.99955880
 H      6   5   4     1.086974727254   121.31613534   179.99992610
 H      6   5   4     1.085169015491   121.28952802     0.00000000

---------------------------
INTERNAL COORDINATES (A.U.)
---------------------------
 C      0   0   0     0.000000000000     0.00000000     0.00000000
 C      1   0   0     2.524580369589     0.00000000     0.00000000
 O      2   1   0     2.564747840468   128.68592067     0.00000000
 C      3   2   1     2.679206860092   117.61030101     0.00000000
 C      4   3   2     2.837950519295   110.00781678   179.99970937
 C      5   4   3     2.517251231465   125.33946678     0.00000000
 H      1   2   3     2.050189218544   118.52140589   179.99996628
 H      1   2   3     2.049685551177   123.89888876     0.00000000
 H      2   1   3     2.054585781563   121.79814808   180.00009114
 H      4   3   2     2.084513619617   109.72851114    58.37273624
 H      4   3   2     2.084513996687   109.72854012   301.62655603
 H      5   4   3     2.060398288055   114.22632022   179.99955880
 H      6   5   4     2.054084549003   121.31613534   179.99992610
 H      6   5   4     2.050672248295   121.28952802     0.00000000

---------------------
BASIS SET INFORMATION
---------------------
There are 3 groups of distinct atoms

 Group   1 Type C   : 10s4p1d contracted to 3s2p1d pattern {631/31/1}
 Group   2 Type O   : 10s4p1d contracted to 3s2p1d pattern {631/31/1}
 Group   3 Type H   : 4s contracted to 2s pattern {31}

Atom   0C    basis set group =>   1
Atom   1C    basis set group =>   1
Atom   2O    basis set group =>   2
Atom   3C    basis set group =>   1
Atom   4C    basis set group =>   1
Atom   5C    basis set group =>   1
Atom   6H    basis set group =>   3
Atom   7H    basis set group =>   3
Atom   8H    basis set group =>   3
Atom   9H    basis set group =>   3
Atom  10H    basis set group =>   3
Atom  11H    basis set group =>   3
Atom  12H    basis set group =>   3
Atom  13H    basis set group =>   3
---------------------------------
AUXILIARY/J BASIS SET INFORMATION
---------------------------------
There are 3 groups of distinct atoms

 Group   1 Type C   : 12s5p4d2f1g contracted to 6s4p3d1f1g pattern {711111/2111/211/2/1}
 Group   2 Type O   : 12s5p4d2f1g contracted to 6s4p3d1f1g pattern {711111/2111/211/2/1}
 Group   3 Type H   : 5s2p1d contracted to 3s1p1d pattern {311/2/1}

Atom   0C    basis set group =>   1
Atom   1C    basis set group =>   1
Atom   2O    basis set group =>   2
Atom   3C    basis set group =>   1
Atom   4C    basis set group =>   1
Atom   5C    basis set group =>   1
Atom   6H    basis set group =>   3
Atom   7H    basis set group =>   3
Atom   8H    basis set group =>   3
Atom   9H    basis set group =>   3
Atom  10H    basis set group =>   3
Atom  11H    basis set group =>   3
Atom  12H    basis set group =>   3
Atom  13H    basis set group =>   3


           ************************************************************
           *        Program running with 4 parallel MPI-processes     *
           *              working on a common directory               *
           ************************************************************
------------------------------------------------------------------------------
                           ORCA GTO INTEGRAL CALCULATION
                           -- RI-GTO INTEGRALS CHOSEN --
------------------------------------------------------------------------------

                         BASIS SET STATISTICS AND STARTUP INFO

Gaussian basis set:
 # of primitive gaussian shells          ...  122
 # of primitive gaussian functions       ...  194
 # of contracted shells                  ...   52
 # of contracted basis functions         ...  100
 Highest angular momentum                ...    2
 Maximum contraction depth               ...    6
Auxiliary gaussian basis set:
 # of primitive gaussian shells          ...  208
 # of primitive gaussian functions       ...  548
 # of contracted shells                  ...  130
 # of contracted aux-basis functions     ...  382
 Highest angular momentum                ...    4
 Maximum contraction depth               ...    7
Ratio of auxiliary to basis functions    ...  3.82
Integral package used                  ... LIBINT
 One Electron integrals                  ... done
 Ordering auxiliary basis shells         ... done
 Integral threshhold             Thresh  ...  1.000e-10
 Primitive cut-off               TCut    ...  1.000e-11
 Pre-screening matrix                    ... done
 Shell pair data                         ... 
 Ordering of the shell pairs             ... done (   0.000 sec) 1314 of 1378 pairs
 Determination of significant pairs      ... done (   0.000 sec)
 Creation of shell pair data             ... done (   0.000 sec)
 Storage of shell pair data              ... done (   0.001 sec)
 Shell pair data done in (   0.002 sec)
 Computing two index integrals           ... done
 Cholesky decomposition of the V-matrix  ... done


Timings:
 Total evaluation time                   ...   0.340 sec (  0.006 min)
 One electron matrix time                ...   0.082 sec (  0.001 min) = 24.2%
 Schwartz matrix evaluation time         ...   0.191 sec (  0.003 min) = 56.2%
 Two index repulsion integral time       ...   0.010 sec (  0.000 min) =  3.0%
 Cholesky decomposition of V             ...   0.012 sec (  0.000 min) =  3.5%
 Three index repulsion integral time     ...   0.000 sec (  0.000 min) =  0.0%



           ************************************************************
           *        Program running with 4 parallel MPI-processes     *
           *              working on a common directory               *
           ************************************************************
-------------------------------------------------------------------------------
                                 ORCA SCF
-------------------------------------------------------------------------------

------------
SCF SETTINGS
------------
Hamiltonian:
 Density Functional     Method          .... DFT(GTOs)
 Exchange Functional    Exchange        .... B88
   X-Alpha parameter    XAlpha          ....  0.666667
   Becke's b parameter  XBeta           ....  0.004200
 Correlation Functional Correlation     .... LYP
 LDA part of GGA corr.  LDAOpt          .... VWN-5
 Gradients option       PostSCFGGA      .... off
 Hybrid DFT is turned on
   Fraction HF Exchange ScalHFX         ....  0.200000
   Scaling of DF-GGA-X  ScalDFX         ....  0.720000
   Scaling of DF-GGA-C  ScalDFC         ....  0.810000
   Scaling of DF-LDA-C  ScalLDAC        ....  1.000000
   Perturbative correction              ....  0.000000
   Density functional embedding theory  .... OFF
   NL short-range parameter             ....  4.800000
 RI-approximation to the Coulomb term is turned on
   Number of auxiliary basis functions  .... 382
   RIJ-COSX (HFX calculated with COS-X)).... on


General Settings:
 Integral files         IntName         .... claisen_gs_freq
 Hartree-Fock type      HFTyp           .... RHF
 Total Charge           Charge          ....    0
 Multiplicity           Mult            ....    1
 Number of Electrons    NEL             ....   46
 Basis Dimension        Dim             ....  100
 Nuclear Repulsion      ENuc            ....    222.1358878239 Eh

Convergence Acceleration:
 DIIS                   CNVDIIS         .... on
   Start iteration      DIISMaxIt       ....    12
   Startup error        DIISStart       ....  0.200000
   # of expansion vecs  DIISMaxEq       ....     5
   Bias factor          DIISBfac        ....   1.050
   Max. coefficient     DIISMaxC        ....  10.000
 Newton-Raphson         CNVNR           .... off
 SOSCF                  CNVSOSCF        .... on
   Start iteration      SOSCFMaxIt      ....   150
   Startup grad/error   SOSCFStart      ....  0.003300
 Level Shifting         CNVShift        .... on
   Level shift para.    LevelShift      ....    0.2500
   Turn off err/grad.   ShiftErr        ....    0.0010
 Zerner damping         CNVZerner       .... off
 Static damping         CNVDamp         .... on
   Fraction old density DampFac         ....    0.7000
   Max. Damping (<1)    DampMax         ....    0.9800
   Min. Damping (>=0)   DampMin         ....    0.0000
   Turn off err/grad.   DampErr         ....    0.1000
 Fernandez-Rico         CNVRico         .... off

SCF Procedure:
 Maximum # iterations   MaxIter         ....   125
 SCF integral mode      SCFMode         .... Direct
   Integral package                     .... LIBINT
 Reset frequency        DirectResetFreq ....    20
 Integral Threshold     Thresh          ....  1.000e-10 Eh
 Primitive CutOff       TCut            ....  1.000e-11 Eh

Convergence Tolerance:
 Convergence Check Mode ConvCheckMode   .... Total+1el-Energy
 Convergence forced     ConvForced      .... 0
 Energy Change          TolE            ....  1.000e-06 Eh
 1-El. energy change                    ....  1.000e-03 Eh
 Orbital Gradient       TolG            ....  5.000e-05
 Orbital Rotation angle TolX            ....  5.000e-05
 DIIS Error             TolErr          ....  1.000e-06


Diagonalization of the overlap matrix:
Smallest eigenvalue                        ... 4.181e-03
Time for diagonalization                   ...    0.003 sec
Threshold for overlap eigenvalues          ... 1.000e-08
Number of eigenvalues below threshold      ... 0
Time for construction of square roots      ...    0.018 sec
Total time needed                          ...    0.021 sec

-------------------
DFT GRID GENERATION
-------------------

General Integration Accuracy     IntAcc      ...  4.340
Radial Grid Type                 RadialGrid  ... Gauss-Chebyshev
Angular Grid (max. acc.)         AngularGrid ... Lebedev-110
Angular grid pruning method      GridPruning ... 3 (G Style)
Weight generation scheme         WeightScheme... Becke
Basis function cutoff            BFCut       ...    1.0000e-10
Integration weight cutoff        WCut        ...    1.0000e-14
Grids for H and He will be reduced by one unit

# of grid points (after initial pruning)     ...  16348 (   0.0 sec)
# of grid points (after weights+screening)   ...  15340 (   0.0 sec)
nearest neighbour list constructed           ...    0.0 sec
Grid point re-assignment to atoms done       ...    0.0 sec
Grid point division into batches done        ...    0.0 sec
Reduced shell lists constructed in    0.1 sec

Total number of grid points                  ...    15340
Total number of batches                      ...      247
Average number of points per batch           ...       62
Average number of grid points per atom       ...     1096
Average number of shells per batch           ...    43.94 (84.49%)
Average number of basis functions per batch  ...    86.92 (86.92%)
Average number of large shells per batch     ...    36.68 (83.49%)
Average number of large basis fcns per batch ...    73.98 (85.12%)
Maximum spatial batch extension              ...   3.56,  4.31,  9.35 au
Average spatial batch extension              ...   0.44,  0.44,  0.57 au

Time for grid setup =    0.328 sec

------------------------------
INITIAL GUESS: MODEL POTENTIAL
------------------------------
Loading Hartree-Fock densities                     ... done
Calculating cut-offs                               ... done
Setting up the integral package                    ... done
Initializing the effective Hamiltonian             ... done
Starting the Coulomb interaction                   ... done (   0.0 sec)
Reading the grid                                   ... done
Mapping shells                                     ... done
Starting the XC term evaluation                    ... done (   0.0 sec)
  promolecular density results
     # of electrons  =     46.006922349
     EX              =    -36.234980137
     EC              =     -1.512918043
     EX+EC           =    -37.747898180
Transforming the Hamiltonian                       ... done (   0.0 sec)
Diagonalizing the Hamiltonian                      ... done (   0.0 sec)
Back transforming the eigenvectors                 ... done (   0.0 sec)
Now organizing SCF variables                       ... done
                      ------------------
                      INITIAL GUESS DONE (   0.5 sec)
                      ------------------
--------------------
COSX GRID GENERATION
--------------------

General Integration Accuracy     IntAcc      ...  3.340
Radial Grid Type                 RadialGrid  ... Gauss-Chebyshev
Angular Grid (max. acc.)         AngularGrid ... Lebedev-50
Angular grid pruning method      GridPruning ... 3 (G Style)
Weight generation scheme         WeightScheme... Becke
Basis function cutoff            BFCut       ...    1.0000e-10
Integration weight cutoff        WCut        ...    1.0000e-14
Grids for H and He will be reduced by one unit

# of grid points (after initial pruning)     ...   6040 (   0.0 sec)
# of grid points (after weights+screening)   ...   5705 (   0.0 sec)
nearest neighbour list constructed           ...    0.0 sec
Grid point re-assignment to atoms done       ...    0.0 sec
Grid point division into batches done        ...    0.0 sec
Reduced shell lists constructed in    0.0 sec

Total number of grid points                  ...     5705
Total number of batches                      ...       95
Average number of points per batch           ...       60
Average number of grid points per atom       ...      408
Average number of shells per batch           ...    43.08 (82.85%)
Average number of basis functions per batch  ...    84.60 (84.60%)
Average number of large shells per batch     ...    36.92 (85.70%)
Average number of large basis fcns per batch ...    73.96 (87.42%)
Maximum spatial batch extension              ...   3.37,  4.14, 17.62 au
Average spatial batch extension              ...   0.49,  0.50,  0.88 au

Overlap Fitting                  UseSFitting ... on
Constructing numerical overlap ... done (      0.0 sec)
Inverting numerical overlap    ... done (      0.0 sec)
Obtaining analytic overlap     ... done (      0.0 sec)
Final contraction and storage  ... done (      0.0 sec)


General Integration Accuracy     IntAcc      ...  3.670
Radial Grid Type                 RadialGrid  ... Gauss-Chebyshev
Angular Grid (max. acc.)         AngularGrid ... Lebedev-50
Angular grid pruning method      GridPruning ... 3 (G Style)
Weight generation scheme         WeightScheme... Becke
Basis function cutoff            BFCut       ...    1.0000e-10
Integration weight cutoff        WCut        ...    1.0000e-14
Grids for H and He will be reduced by one unit

# of grid points (after initial pruning)     ...   7748 (   0.0 sec)
# of grid points (after weights+screening)   ...   7299 (   0.0 sec)
nearest neighbour list constructed           ...    0.0 sec
Grid point re-assignment to atoms done       ...    0.0 sec
Grid point division into batches done        ...    0.0 sec
Reduced shell lists constructed in    0.0 sec

Total number of grid points                  ...     7299
Total number of batches                      ...      122
Average number of points per batch           ...       59
Average number of grid points per atom       ...      521
Average number of shells per batch           ...    44.19 (84.98%)
Average number of basis functions per batch  ...    86.88 (86.88%)
Average number of large shells per batch     ...    37.00 (83.73%)
Average number of large basis fcns per batch ...    74.31 (85.54%)
Maximum spatial batch extension              ...   3.64,  3.74,  8.99 au
Average spatial batch extension              ...   0.49,  0.49,  0.88 au

Overlap Fitting                  UseSFitting ... on
Constructing numerical overlap ... done (      0.0 sec)
Inverting numerical overlap    ... done (      0.0 sec)
Obtaining analytic overlap     ... done (      0.0 sec)
Final contraction and storage  ... done (      0.0 sec)


General Integration Accuracy     IntAcc      ...  4.010
Radial Grid Type                 RadialGrid  ... Gauss-Chebyshev
Angular Grid (max. acc.)         AngularGrid ... Lebedev-110
Angular grid pruning method      GridPruning ... 3 (G Style)
Weight generation scheme         WeightScheme... Becke
Basis function cutoff            BFCut       ...    1.0000e-10
Integration weight cutoff        WCut        ...    1.0000e-14
Grids for H and He will be reduced by one unit

# of grid points (after initial pruning)     ...  14106 (   0.0 sec)
# of grid points (after weights+screening)   ...  13262 (   0.0 sec)
nearest neighbour list constructed           ...    0.0 sec
Grid point re-assignment to atoms done       ...    0.0 sec
Grid point division into batches done        ...    0.0 sec
Reduced shell lists constructed in    0.0 sec

Total number of grid points                  ...    13262
Total number of batches                      ...      213
Average number of points per batch           ...       62
Average number of grid points per atom       ...      947
Average number of shells per batch           ...    43.75 (84.13%)
Average number of basis functions per batch  ...    86.58 (86.58%)
Average number of large shells per batch     ...    36.82 (84.16%)
Average number of large basis fcns per batch ...    74.49 (86.04%)
Maximum spatial batch extension              ...   3.60,  4.89,  8.61 au
Average spatial batch extension              ...   0.44,  0.49,  0.61 au

Overlap Fitting                  UseSFitting ... on
Constructing numerical overlap ... done (      0.0 sec)
Inverting numerical overlap    ... done (      0.0 sec)
Obtaining analytic overlap     ... done (      0.0 sec)
Final contraction and storage  ... done (      0.0 sec)

Time for X-Grid setup             =    0.244 sec
--------------
SCF ITERATIONS
--------------
ITER       Energy         Delta-E        Max-DP      RMS-DP      [F,P]     Damp
               ***  Starting incremental Fock matrix formation  ***
  0   -270.1639608530   0.000000000000 0.06847280  0.00274440  0.1648867 0.7000
  1   -270.2399421857  -0.075981332665 0.04987238  0.00207400  0.0889361 0.7000
                               ***Turning on DIIS***
  2   -270.2729846890  -0.033042503315 0.08529506  0.00364177  0.0366857 0.0000
  3   -270.3192056941  -0.046221005061 0.03264274  0.00141614  0.0487312 0.0000
  4   -270.3317126900  -0.012506995949 0.00837652  0.00044615  0.0078590 0.0000
  5   -270.3322880390  -0.000575349034 0.00247717  0.00014206  0.0038095 0.0000
                      *** Initiating the SOSCF procedure ***
                           *** Shutting down DIIS ***
                      *** Re-Reading the Fockian *** 
                      *** Removing any level shift *** 
ITER      Energy       Delta-E        Grad      Rot      Max-DP    RMS-DP
  6   -270.33233696  -0.0000489250  0.000436  0.000436  0.001288  0.000065
               *** Restarting incremental Fock matrix formation ***
  7   -270.33233140   0.0000055599  0.000614  0.002277  0.002075  0.000065
  8   -270.33232467   0.0000067379  0.001263  0.001555  0.001401  0.000044
  9   -270.33233372  -0.0000090491  0.000024  0.000087  0.000101  0.000003
                 **** Energy Check signals convergence ****
              ***Rediagonalizing the Fockian in SOSCF/NRSCF***

               *****************************************************
               *                     SUCCESS                       *
               *           SCF CONVERGED AFTER  10 CYCLES          *
               *****************************************************

Setting up the final grid:

General Integration Accuracy     IntAcc      ...  4.670
Radial Grid Type                 RadialGrid  ... Gauss-Chebyshev
Angular Grid (max. acc.)         AngularGrid ... Lebedev-302
Angular grid pruning method      GridPruning ... 3 (G Style)
Weight generation scheme         WeightScheme... Becke
Basis function cutoff            BFCut       ...    1.0000e-10
Integration weight cutoff        WCut        ...    1.0000e-14
Grids for H and He will be reduced by one unit

# of grid points (after initial pruning)     ...  64424 (   0.0 sec)
# of grid points (after weights+screening)   ...  59706 (   0.1 sec)
nearest neighbour list constructed           ...    0.0 sec
Grid point re-assignment to atoms done       ...    0.0 sec
Grid point division into batches done        ...    0.3 sec
Reduced shell lists constructed in    0.4 sec

Total number of grid points                  ...    59706
Total number of batches                      ...      939
Average number of points per batch           ...       63
Average number of grid points per atom       ...     4265
Average number of shells per batch           ...    43.12 (82.92%)
Average number of basis functions per batch  ...    85.61 (85.61%)
Average number of large shells per batch     ...    35.25 (81.74%)
Average number of large basis fcns per batch ...    70.90 (82.82%)
Maximum spatial batch extension              ...   3.36,  3.35,  6.45 au
Average spatial batch extension              ...   0.29,  0.30,  0.33 au

Final grid set up in    0.5 sec
Final integration                            ... done (   0.2 sec)
Change in XC energy                          ...    -0.000795607
Integrated number of electrons               ...    45.999973397
Previous integrated no of electrons          ...    46.002552794
Old exchange energy                            =     -7.391108545 Eh
New exchange energy                            =     -7.391332910 Eh
Exchange energy change after final integration =     -0.000224365 Eh
Total energy after final integration           =   -270.333353690 Eh
Final COS-X integration done in                =     0.892 sec

----------------
TOTAL SCF ENERGY
----------------

Total Energy       :         -270.33335369 Eh           -7356.14453 eV

Components:
Nuclear Repulsion  :          222.13588782 Eh            6044.62481 eV
Electronic Energy  :         -492.46924151 Eh          -13400.76934 eV
One Electron Energy:         -805.12527540 Eh          -21908.57255 eV
Two Electron Energy:          312.65603388 Eh            8507.80321 eV

Virial components:
Potential Energy   :         -539.08416022 Eh          -14669.22577 eV
Kinetic Energy     :          268.75080653 Eh            7313.08124 eV
Virial Ratio       :            2.00588853


DFT components:
N(Alpha)           :       22.999986698445 electrons
N(Beta)            :       22.999986698445 electrons
N(Total)           :       45.999973396890 electrons
E(X)               :      -29.343241574977 Eh       
E(C)               :       -1.793955400594 Eh       
E(XC)              :      -31.137196975571 Eh       
DFET-embed. en.    :        0.000000000000 Eh       

---------------
SCF CONVERGENCE
---------------

  Last Energy change         ...   -2.9561e-09  Tolerance :   1.0000e-06
  Last MAX-Density change    ...    2.6645e-15  Tolerance :   1.0000e-05
  Last RMS-Density change    ...    6.2811e-17  Tolerance :   1.0000e-06
  Last Orbital Gradient      ...    4.2698e-05  Tolerance :   5.0000e-05
  Last Orbital Rotation      ...    5.9355e-05  Tolerance :   5.0000e-05

             **** THE GBW FILE WAS UPDATED (claisen_gs_freq.gbw) ****
             **** DENSITY FILE WAS UPDATED (claisen_gs_freq.scfp) ****
             **** ENERGY FILE WAS UPDATED (claisen_gs_freq.en.tmp) ****
             **** THE GBW FILE WAS UPDATED (claisen_gs_freq.gbw) ****
             **** DENSITY FILE WAS UPDATED (claisen_gs_freq.scfp) ****
----------------
ORBITAL ENERGIES
----------------

  NO   OCC          E(Eh)            E(eV) 
   0   2.0000     -19.169439      -521.6270 
   1   2.0000     -10.236241      -278.5423 
   2   2.0000     -10.230007      -278.3726 
   3   2.0000     -10.183725      -277.1132 
   4   2.0000     -10.167956      -276.6842 
   5   2.0000     -10.157822      -276.4084 
   6   2.0000      -1.061394       -28.8820 
   7   2.0000      -0.791778       -21.5454 
   8   2.0000      -0.737708       -20.0740 
   9   2.0000      -0.689978       -18.7753 
  10   2.0000      -0.593290       -16.1442 
  11   2.0000      -0.534974       -14.5574 
  12   2.0000      -0.509926       -13.8758 
  13   2.0000      -0.469509       -12.7760 
  14   2.0000      -0.468488       -12.7482 
  15   2.0000      -0.442516       -12.0415 
  16   2.0000      -0.407254       -11.0820 
  17   2.0000      -0.377610       -10.2753 
  18   2.0000      -0.349825        -9.5192 
  19   2.0000      -0.345406        -9.3990 
  20   2.0000      -0.332223        -9.0402 
  21   2.0000      -0.253404        -6.8955 
  22   2.0000      -0.223795        -6.0898 
  23   0.0000       0.024436         0.6649 
  24   0.0000       0.045778         1.2457 
  25   0.0000       0.103194         2.8081 
  26   0.0000       0.120085         3.2677 
  27   0.0000       0.130809         3.5595 
  28   0.0000       0.150185         4.0868 
  29   0.0000       0.163553         4.4505 
  30   0.0000       0.174596         4.7510 
  31   0.0000       0.175359         4.7718 
  32   0.0000       0.196193         5.3387 
  33   0.0000       0.214757         5.8438 
  34   0.0000       0.296227         8.0608 
  35   0.0000       0.303564         8.2604 
  36   0.0000       0.359916         9.7938 
  37   0.0000       0.369746        10.0613 
  38   0.0000       0.491189        13.3659 
  39   0.0000       0.533861        14.5271 
  40   0.0000       0.542571        14.7641 
  41   0.0000       0.555276        15.1098 
  42   0.0000       0.561783        15.2869 
  43   0.0000       0.577541        15.7157 
  44   0.0000       0.619875        16.8677 
  45   0.0000       0.634879        17.2759 
  46   0.0000       0.653140        17.7728 
  47   0.0000       0.666467        18.1355 
  48   0.0000       0.683726        18.6051 
  49   0.0000       0.703715        19.1490 
  50   0.0000       0.709315        19.3014 
  51   0.0000       0.742429        20.2025 
  52   0.0000       0.843966        22.9655 
  53   0.0000       0.855315        23.2743 
  54   0.0000       0.862376        23.4664 
  55   0.0000       0.873930        23.7808 
  56   0.0000       0.890272        24.2255 
  57   0.0000       0.910363        24.7722 
  58   0.0000       0.944188        25.6927 
  59   0.0000       0.975420        26.5425 
  60   0.0000       1.029997        28.0276 
  61   0.0000       1.064916        28.9778 
  62   0.0000       1.092665        29.7329 
  63   0.0000       1.128301        30.7026 
  64   0.0000       1.141986        31.0750 
  65   0.0000       1.196091        32.5473 
  66   0.0000       1.240193        33.7474 
  67   0.0000       1.325577        36.0708 
  68   0.0000       1.375172        37.4203 
  69   0.0000       1.441217        39.2175 
  70   0.0000       1.459365        39.7113 
  71   0.0000       1.480335        40.2820 
  72   0.0000       1.523124        41.4463 
  73   0.0000       1.684858        45.8473 
  74   0.0000       1.707983        46.4766 
  75   0.0000       1.728468        47.0340 
  76   0.0000       1.774833        48.2956 
  77   0.0000       1.845176        50.2098 
  78   0.0000       1.882894        51.2361 
  79   0.0000       1.952114        53.1197 
  80   0.0000       1.960777        53.3555 
  81   0.0000       1.986090        54.0443 
  82   0.0000       2.039769        55.5049 
  83   0.0000       2.101309        57.1795 
  84   0.0000       2.162130        58.8346 
  85   0.0000       2.178828        59.2889 
  86   0.0000       2.211165        60.1689 
  87   0.0000       2.270757        61.7904 
  88   0.0000       2.280982        62.0687 
  89   0.0000       2.309589        62.8471 
  90   0.0000       2.446894        66.5834 
  91   0.0000       2.464029        67.0496 
  92   0.0000       2.516819        68.4861 
  93   0.0000       2.599825        70.7448 
  94   0.0000       2.601474        70.7897 
  95   0.0000       2.668860        72.6234 
  96   0.0000       2.753735        74.9329 
  97   0.0000       2.882642        78.4407 
  98   0.0000       3.005892        81.7945 
  99   0.0000       3.100497        84.3688 

                    ********************************
                    * MULLIKEN POPULATION ANALYSIS *
                    ********************************

-----------------------
MULLIKEN ATOMIC CHARGES
-----------------------
   0 C :   -0.401600
   1 C :    0.160066
   2 O :   -0.440778
   3 C :   -0.053418
   4 C :   -0.095801
   5 C :   -0.316469
   6 H :    0.142126
   7 H :    0.141866
   8 H :    0.138515
   9 H :    0.149226
  10 H :    0.149226
  11 H :    0.129238
  12 H :    0.140139
  13 H :    0.157662
Sum of atomic charges:   -0.0000000

--------------------------------
MULLIKEN REDUCED ORBITAL CHARGES
--------------------------------
  0 C s       :     3.238490  s :     3.238490
      pz      :     1.144730  p :     3.134998
      px      :     1.024237
      py      :     0.966031
      dz2     :     0.003989  d :     0.028112
      dxz     :     0.002146
      dyz     :     0.002670
      dx2y2   :     0.011582
      dxy     :     0.007725
  1 C s       :     3.099895  s :     3.099895
      pz      :     0.980018  p :     2.672246
      px      :     0.721431
      py      :     0.970797
      dz2     :     0.005104  d :     0.067793
      dxz     :     0.016449
      dyz     :     0.003175
      dx2y2   :     0.026923
      dxy     :     0.016142
  2 O s       :     3.844603  s :     3.844603
      pz      :     1.786835  p :     4.566692
      px      :     1.326347
      py      :     1.453510
      dz2     :     0.003804  d :     0.029483
      dxz     :     0.005197
      dyz     :     0.003285
      dx2y2   :     0.010562
      dxy     :     0.006635
  3 C s       :     3.182225  s :     3.182225
      pz      :     1.062845  p :     2.805126
      px      :     0.964792
      py      :     0.777489
      dz2     :     0.009358  d :     0.066067
      dxz     :     0.007697
      dyz     :     0.018643
      dx2y2   :     0.015406
      dxy     :     0.014964
  4 C s       :     3.182646  s :     3.182646
      pz      :     0.996874  p :     2.878386
      px      :     0.904234
      py      :     0.977277
      dz2     :     0.003321  d :     0.034769
      dxz     :     0.004432
      dyz     :     0.003928
      dx2y2   :     0.012552
      dxy     :     0.010536
  5 C s       :     3.251965  s :     3.251965
      pz      :     1.007474  p :     3.034341
      px      :     1.012358
      py      :     1.014509
      dz2     :     0.003767  d :     0.030163
      dxz     :     0.001239
      dyz     :     0.003674
      dx2y2   :     0.012570
      dxy     :     0.008912
  6 H s       :     0.857874  s :     0.857874
  7 H s       :     0.858134  s :     0.858134
  8 H s       :     0.861485  s :     0.861485
  9 H s       :     0.850774  s :     0.850774
 10 H s       :     0.850774  s :     0.850774
 11 H s       :     0.870762  s :     0.870762
 12 H s       :     0.859861  s :     0.859861
 13 H s       :     0.842338  s :     0.842338


                     *******************************
                     * LOEWDIN POPULATION ANALYSIS *
                     *******************************

----------------------
LOEWDIN ATOMIC CHARGES
----------------------
   0 C :   -0.367597
   1 C :   -0.023144
   2 O :   -0.158206
   3 C :   -0.090928
   4 C :   -0.142609
   5 C :   -0.265782
   6 H :    0.139369
   7 H :    0.131460
   8 H :    0.130252
   9 H :    0.123251
  10 H :    0.123250
  11 H :    0.130215
  12 H :    0.131395
  13 H :    0.139073

-------------------------------
LOEWDIN REDUCED ORBITAL CHARGES
-------------------------------
  0 C s       :     2.977586  s :     2.977586
      pz      :     1.139290  p :     3.328337
      px      :     1.093598
      py      :     1.095449
      dz2     :     0.006459  d :     0.061674
      dxz     :     0.003868
      dyz     :     0.004830
      dx2y2   :     0.026096
      dxy     :     0.020422
  1 C s       :     2.908288  s :     2.908288
      pz      :     0.971552  p :     2.959104
      px      :     0.885985
      py      :     1.101566
      dz2     :     0.010633  d :     0.155752
      dxz     :     0.035572
      dyz     :     0.006045
      dx2y2   :     0.060753
      dxy     :     0.042750
  2 O s       :     3.456656  s :     3.456656
      pz      :     1.769125  p :     4.632056
      px      :     1.362148
      py      :     1.500783
      dz2     :     0.007440  d :     0.069494
      dxz     :     0.011231
      dyz     :     0.006726
      dx2y2   :     0.025623
      dxy     :     0.018475
  3 C s       :     2.924199  s :     2.924199
      pz      :     1.115495  p :     3.027916
      px      :     1.031070
      py      :     0.881352
      dz2     :     0.018968  d :     0.138813
      dxz     :     0.014130
      dyz     :     0.037922
      dx2y2   :     0.037359
      dxy     :     0.030435
  4 C s       :     2.934128  s :     2.934128
      pz      :     0.983777  p :     3.126089
      px      :     1.037969
      py      :     1.104343
      dz2     :     0.006140  d :     0.082392
      dxz     :     0.009123
      dyz     :     0.007628
      dx2y2   :     0.032340
      dxy     :     0.027162
  5 C s       :     2.980709  s :     2.980709
      pz      :     1.008975  p :     3.219917
      px      :     1.094929
      py      :     1.116013
      dz2     :     0.005916  d :     0.065156
      dxz     :     0.002348
      dyz     :     0.006866
      dx2y2   :     0.028161
      dxy     :     0.021865
  6 H s       :     0.860631  s :     0.860631
  7 H s       :     0.868540  s :     0.868540
  8 H s       :     0.869748  s :     0.869748
  9 H s       :     0.876749  s :     0.876749
 10 H s       :     0.876750  s :     0.876750
 11 H s       :     0.869785  s :     0.869785
 12 H s       :     0.868605  s :     0.868605
 13 H s       :     0.860927  s :     0.860927


                      *****************************
                      * MAYER POPULATION ANALYSIS *
                      *****************************

  NA   - Mulliken gross atomic population
  ZA   - Total nuclear charge
  QA   - Mulliken gross atomic charge
  VA   - Mayer's total valence
  BVA  - Mayer's bonded valence
  FA   - Mayer's free valence

  ATOM       NA         ZA         QA         VA         BVA        FA
  0 C      6.4016     6.0000    -0.4016     3.8520     3.8520     0.0000
  1 C      5.8399     6.0000     0.1601     3.8837     3.8837     0.0000
  2 O      8.4408     8.0000    -0.4408     2.0894     2.0894     0.0000
  3 C      6.0534     6.0000    -0.0534     3.8042     3.8042    -0.0000
  4 C      6.0958     6.0000    -0.0958     3.9417     3.9417    -0.0000
  5 C      6.3165     6.0000    -0.3165     3.9122     3.9122    -0.0000
  6 H      0.8579     1.0000     0.1421     0.9462     0.9462     0.0000
  7 H      0.8581     1.0000     0.1419     0.9454     0.9454    -0.0000
  8 H      0.8615     1.0000     0.1385     0.9383     0.9383    -0.0000
  9 H      0.8508     1.0000     0.1492     0.9256     0.9256     0.0000
 10 H      0.8508     1.0000     0.1492     0.9256     0.9256    -0.0000
 11 H      0.8708     1.0000     0.1292     0.9383     0.9383    -0.0000
 12 H      0.8599     1.0000     0.1401     0.9401     0.9401    -0.0000
 13 H      0.8423     1.0000     0.1577     0.9452     0.9452    -0.0000

  Mayer bond orders larger than 0.100000
B(  0-C ,  1-C ) :   1.8642 B(  0-C ,  6-H ) :   0.9342 B(  0-C ,  7-H ) :   0.9337 
B(  1-C ,  2-O ) :   1.0499 B(  1-C ,  8-H ) :   0.9405 B(  2-O ,  3-C ) :   0.9067 
B(  3-C ,  4-C ) :   1.0270 B(  3-C ,  9-H ) :   0.9074 B(  3-C , 10-H ) :   0.9074 
B(  4-C ,  5-C ) :   2.0025 B(  4-C , 11-H ) :   0.9300 B(  5-C , 12-H ) :   0.9369 
B(  5-C , 13-H ) :   0.9275 

-------
TIMINGS
-------

Total SCF time: 0 days 0 hours 0 min 9 sec 

Total time                  ....       9.110 sec
Sum of individual times     ....       8.960 sec  ( 98.4%)

Fock matrix formation       ....       7.649 sec  ( 84.0%)
  Split-RI-J                ....       1.598 sec  ( 20.9% of F)
  Chain of spheres X        ....       5.349 sec  ( 69.9% of F)
  COS-X 1 center corr.      ....       0.000 sec  (  0.0% of F)
  XC integration            ....       0.679 sec  (  8.9% of F)
    Basis function eval.    ....       0.228 sec  ( 33.5% of XC)
    Density eval.           ....       0.105 sec  ( 15.4% of XC)
    XC-Functional eval.     ....       0.057 sec  (  8.4% of XC)
    XC-Potential eval.      ....       0.139 sec  ( 20.5% of XC)
Diagonalization             ....       0.011 sec  (  0.1%)
Density matrix formation    ....       0.002 sec  (  0.0%)
Population analysis         ....       0.003 sec  (  0.0%)
Initial guess               ....       0.203 sec  (  2.2%)
Orbital Transformation      ....       0.000 sec  (  0.0%)
Orbital Orthonormalization  ....       0.000 sec  (  0.0%)
DIIS solution               ....       0.004 sec  (  0.0%)
SOSCF solution              ....       0.005 sec  (  0.0%)
Grid generation             ....       1.084 sec  ( 11.9%)

-------------------------   --------------------
FINAL SINGLE POINT ENERGY      -270.333353689954
-------------------------   --------------------


                            ***************************************
                            *     ORCA property calculations      *
                            ***************************************

                                    ---------------------
                                    Active property flags
                                    ---------------------
   (+) Dipole Moment


------------------------------------------------------------------------------
                       ORCA ELECTRIC PROPERTIES CALCULATION
------------------------------------------------------------------------------

Dipole Moment Calculation                       ... on
Quadrupole Moment Calculation                   ... off
Polarizability Calculation                      ... off
GBWName                                         ... claisen_gs_freq.gbw
Electron density file                           ... claisen_gs_freq.scfp
The origin for moment calculation is the CENTER OF MASS  = (-0.002847, -0.035789 -0.000009)

-------------
DIPOLE MOMENT
-------------
                                X             Y             Z
Electronic contribution:     -0.08420      -1.56032       0.00001
Nuclear contribution   :      0.04072       1.88989      -0.00001
                        -----------------------------------------
Total Dipole Moment    :     -0.04348       0.32957      -0.00000
                        -----------------------------------------
Magnitude (a.u.)       :      0.33243
Magnitude (Debye)      :      0.84496



--------------------
Rotational spectrum 
--------------------
 
Rotational constants in cm-1:     0.416084     0.062346     0.054777 
Rotational constants in MHz : 12473.879877  1869.082929  1642.162814 

 Dipole components along the rotational axes: 
x,y,z [a.u.] :    -0.046217    -0.329199    -0.000004 
x,y,z [Debye]:    -0.117475    -0.836758    -0.000010 

 


           ************************************************************
           *        Program running with 4 parallel MPI-processes     *
           *              working on a common directory               *
           ************************************************************

-------------------------------------------------------------------------------
                               ORCA SCF HESSIAN
-------------------------------------------------------------------------------

Hessian of the Kohn-Sham DFT energy:
Kohn-Sham wavefunction type                      ... RKS
Hartree-Fock exchange scaling                    ...    0.200
Number of operators                              ...    1
Number of atoms                                  ...   14
Basis set dimensions                             ...  100
Integral neglect threshold                       ... 1.0e-10
Integral primitive cutoff                        ... 1.0e-11

Setting up DFT Hessian calculations              ... 
Electron density on the grid                     ... found on disk
Electron density on the final grid               ... found on disk
Building xc-kernel on the grid                   ... done   (      0.0 sec)
Building xc-kernel on the final grid             ... done   (      0.1 sec)
                                                     done   (      0.1 sec)

Nuclear repulsion Hessian                        ... done   (      0.0 sec)

----------------------------------------------
Forming right-hand sides of CP-SCF equations     ...
----------------------------------------------
One electron integral derivatives                ... done   (      0.1 sec)
Transforming the overlap derivative matrices     ... done   (      0.0 sec)
Making the Q(x) pseudodensities                  ... done   (      0.0 sec)
Adding the E*S(x)*S(y) terms to the Hessian      ... done   (      0.0 sec)
Calculating energy weighted overlap derivatives  ... done   (      0.0 sec)
Two electron integral derivatives (RI)           ... done   (      2.5 sec)
Exchange-correlation integral derivatives        ... done   (      5.7 sec)
tr(F(y)Q(x)) contribution to the Hessian         ... done   (      0.0 sec)
Response fock operator R(S(x)) (RIJCOSX)         ... done   (      3.1 sec)
XC Response fock operator R(S(x))                ... done   (      2.4 sec)
tr(F(y)S(x)) contribution to the Hessian         ... done   (      0.0 sec)
Transforming and finalizing RHSs                 ... done   (      0.0 sec)

----------------------------------------------
Solving the CP-SCF equations (RIJCOSX)           ...
----------------------------------------------
     CP-SCF ITERATION   0: 
     CP-SCF ITERATION   1:      0.002851527817
     CP-SCF ITERATION   2:      0.000246101081
     CP-SCF ITERATION   3:      0.000019811120
     CP-SCF ITERATION   4:      0.000001666465
     CP-SCF ITERATION   5:      0.000000972342

                                                 ... done   (     12.7 sec)
Forming perturbed density Hessian contributions  ... done   (      0.0 sec)
2nd integral derivative contribs (RI)            ... done   (     11.2 sec)
Exchange-correlation Hessian                     ... done   (      8.6 sec)
Dipol derivatives                                ... done   (      0.2 sec)

Total SCF Hessian time: 0 days 0 hours 0 min 47 sec 

Writing the Hessian file to the disk             ... done


Maximum memory used throughout the entire calculation: 136.7 MB

-----------------------
VIBRATIONAL FREQUENCIES
-----------------------

Scaling factor for frequencies =  1.000000000  (already applied!)

   0:         0.00 cm**-1
   1:         0.00 cm**-1
   2:         0.00 cm**-1
   3:         0.00 cm**-1
   4:         0.00 cm**-1
   5:         0.00 cm**-1
   6:        60.55 cm**-1
   7:       166.49 cm**-1
   8:       185.11 cm**-1
   9:       252.64 cm**-1
  10:       285.56 cm**-1
  11:       554.36 cm**-1
  12:       572.87 cm**-1
  13:       619.71 cm**-1
  14:       717.34 cm**-1
  15:       822.94 cm**-1
  16:       934.99 cm**-1
  17:       946.80 cm**-1
  18:       955.43 cm**-1
  19:       995.64 cm**-1
  20:      1028.72 cm**-1
  21:      1042.20 cm**-1
  22:      1056.15 cm**-1
  23:      1123.74 cm**-1
  24:      1258.92 cm**-1
  25:      1269.87 cm**-1
  26:      1331.36 cm**-1
  27:      1373.90 cm**-1
  28:      1426.85 cm**-1
  29:      1464.59 cm**-1
  30:      1467.91 cm**-1
  31:      1528.85 cm**-1
  32:      1715.33 cm**-1
  33:      1739.94 cm**-1
  34:      2983.93 cm**-1
  35:      3006.22 cm**-1
  36:      3156.19 cm**-1
  37:      3176.39 cm**-1
  38:      3185.35 cm**-1
  39:      3204.45 cm**-1
  40:      3259.20 cm**-1
  41:      3269.11 cm**-1


------------
NORMAL MODES
------------

These modes are the Cartesian displacements weighted by the diagonal matrix
M(i,i)=1/sqrt(m[i]) where m[i] is the mass of the displaced atom
Thus, these vectors are normalized but *not* orthogonal

                  0          1          2          3          4          5    
      0       0.000000   0.000000   0.000000   0.000000   0.000000   0.000000
      1       0.000000   0.000000   0.000000   0.000000   0.000000   0.000000
      2       0.000000   0.000000   0.000000   0.000000   0.000000   0.000000
      3       0.000000   0.000000   0.000000   0.000000   0.000000   0.000000
      4       0.000000   0.000000   0.000000   0.000000   0.000000   0.000000
      5       0.000000   0.000000   0.000000   0.000000   0.000000   0.000000
      6       0.000000   0.000000   0.000000   0.000000   0.000000   0.000000
      7       0.000000   0.000000   0.000000   0.000000   0.000000   0.000000
      8       0.000000   0.000000   0.000000   0.000000   0.000000   0.000000
      9       0.000000   0.000000   0.000000   0.000000   0.000000   0.000000
     10       0.000000   0.000000   0.000000   0.000000   0.000000   0.000000
     11       0.000000   0.000000   0.000000   0.000000   0.000000   0.000000
     12       0.000000   0.000000   0.000000   0.000000   0.000000   0.000000
     13       0.000000   0.000000   0.000000   0.000000   0.000000   0.000000
     14       0.000000   0.000000   0.000000   0.000000   0.000000   0.000000
     15       0.000000   0.000000   0.000000   0.000000   0.000000   0.000000
     16       0.000000   0.000000   0.000000   0.000000   0.000000   0.000000
     17       0.000000   0.000000   0.000000   0.000000   0.000000   0.000000
     18       0.000000   0.000000   0.000000   0.000000   0.000000   0.000000
     19       0.000000   0.000000   0.000000   0.000000   0.000000   0.000000
     20       0.000000   0.000000   0.000000   0.000000   0.000000   0.000000
     21       0.000000   0.000000   0.000000   0.000000   0.000000   0.000000
     22       0.000000   0.000000   0.000000   0.000000   0.000000   0.000000
     23       0.000000   0.000000   0.000000   0.000000   0.000000   0.000000
     24       0.000000   0.000000   0.000000   0.000000   0.000000   0.000000
     25       0.000000   0.000000   0.000000   0.000000   0.000000   0.000000
     26       0.000000   0.000000   0.000000   0.000000   0.000000   0.000000
     27       0.000000   0.000000   0.000000   0.000000   0.000000   0.000000
     28       0.000000   0.000000   0.000000   0.000000   0.000000   0.000000
     29       0.000000   0.000000   0.000000   0.000000   0.000000   0.000000
     30       0.000000   0.000000   0.000000   0.000000   0.000000   0.000000
     31       0.000000   0.000000   0.000000   0.000000   0.000000   0.000000
     32       0.000000   0.000000   0.000000   0.000000   0.000000   0.000000
     33       0.000000   0.000000   0.000000   0.000000   0.000000   0.000000
     34       0.000000   0.000000   0.000000   0.000000   0.000000   0.000000
     35       0.000000   0.000000   0.000000   0.000000   0.000000   0.000000
     36       0.000000   0.000000   0.000000   0.000000   0.000000   0.000000
     37       0.000000   0.000000   0.000000   0.000000   0.000000   0.000000
     38       0.000000   0.000000   0.000000   0.000000   0.000000   0.000000
     39       0.000000   0.000000   0.000000   0.000000   0.000000   0.000000
     40       0.000000   0.000000   0.000000   0.000000   0.000000   0.000000
     41       0.000000   0.000000   0.000000   0.000000   0.000000   0.000000
                  6          7          8          9         10         11    
      0       0.000000   0.000002   0.084838   0.000004   0.284317  -0.128958
      1      -0.000000  -0.000004  -0.179521  -0.000000  -0.078488  -0.038608
      2       0.275943   0.008517   0.000002   0.082850  -0.000003  -0.000000
      3       0.000001  -0.000002  -0.090987   0.000003   0.120332  -0.012452
      4       0.000001   0.000000  -0.017671   0.000002   0.063351  -0.111007
      5      -0.035102  -0.105174   0.000002  -0.121891   0.000005  -0.000000
      6      -0.000000  -0.000001  -0.070237   0.000003   0.107076   0.045621
      7      -0.000000   0.000004   0.178213   0.000000   0.094725   0.163784
      8      -0.289601   0.057636   0.000000   0.153357  -0.000006   0.000000
      9       0.000000  -0.000001  -0.059562  -0.000001  -0.100153   0.109432
     10      -0.000000   0.000004   0.180188  -0.000002   0.001821   0.131867
     11      -0.174504   0.113579  -0.000007  -0.126566   0.000005   0.000000
     12      -0.000000  -0.000001  -0.053301  -0.000002  -0.127226   0.144015
     13       0.000000   0.000000  -0.004777  -0.000002  -0.093437  -0.169940
     14      -0.027104  -0.162080   0.000008   0.033947  -0.000001  -0.000005
     15      -0.000001   0.000004   0.192898  -0.000008  -0.281967  -0.084434
     16      -0.000000  -0.000004  -0.154029   0.000002  -0.007541  -0.053925
     17       0.264524   0.068597  -0.000003  -0.018272  -0.000000   0.000001
     18       0.000001   0.000000   0.040758   0.000003   0.238931  -0.065759
     19      -0.000000  -0.000007  -0.368919   0.000002  -0.280596   0.255431
     20       0.466872  -0.171891   0.000004  -0.182354   0.000006   0.000002
     21      -0.000001   0.000006   0.261303   0.000006   0.469211  -0.427235
     22      -0.000001  -0.000006  -0.131793  -0.000004  -0.026521  -0.116568
     23       0.343396   0.285729  -0.000001   0.513423  -0.000021   0.000001
     24       0.000002  -0.000007  -0.264610   0.000002   0.022076  -0.128537
     25       0.000002   0.000001  -0.070261   0.000005   0.032600  -0.144461
     26      -0.113008  -0.356102   0.000005  -0.501500   0.000020   0.000002
     27      -0.072394   0.150137  -0.087579  -0.047401  -0.189584   0.021189
     28       0.045548   0.099085   0.188837  -0.245782   0.060949   0.184807
     29      -0.173050   0.236940  -0.004863  -0.303757   0.001953  -0.005508
     30       0.072393  -0.150141  -0.087565   0.047395  -0.189587   0.021169
     31      -0.045548  -0.099077   0.188854   0.245779   0.060930   0.184796
     32      -0.173050   0.236941   0.004831  -0.303758  -0.001929   0.005522
     33       0.000001  -0.000005  -0.232399   0.000002  -0.078047   0.086841
     34       0.000002   0.000000  -0.105661  -0.000001  -0.061976  -0.197467
     35      -0.141410  -0.546705   0.000028   0.191635  -0.000008   0.000014
     36      -0.000001   0.000004   0.195550  -0.000007  -0.285041  -0.092166
     37       0.000000  -0.000008  -0.398009   0.000007   0.168087   0.371261
     38       0.383823  -0.142828   0.000009   0.111598  -0.000005   0.000023
     39      -0.000002   0.000009   0.408932  -0.000013  -0.439924  -0.468513
     40      -0.000001  -0.000003  -0.036747  -0.000000  -0.095069  -0.258393
     41       0.383528   0.455397  -0.000023  -0.172834   0.000006  -0.000014
                 12         13         14         15         16         17    
      0      -0.000002  -0.031665   0.000000   0.000001   0.015084   0.000001
      1      -0.000001  -0.033412  -0.000000  -0.000001  -0.038945   0.000000
      2       0.009274   0.000000   0.033625   0.168520  -0.000000   0.001643
      3      -0.000000   0.154558  -0.000001  -0.000000  -0.021293   0.000000
      4      -0.000002  -0.179118   0.000002   0.000000   0.022323  -0.000000
      5      -0.018174  -0.000002  -0.193522  -0.057373   0.000000  -0.005582
      6       0.000001   0.121234  -0.000000  -0.000000   0.024065  -0.000001
      7       0.000003   0.029596  -0.000000  -0.000000   0.130914  -0.000001
      8      -0.015710   0.000001   0.079660   0.004239  -0.000000   0.005479
      9       0.000001  -0.071094  -0.000000  -0.000000  -0.226001   0.000000
     10       0.000002   0.031343  -0.000001   0.000000  -0.230111   0.000001
     11       0.008657   0.000000   0.021502   0.003064  -0.000001  -0.018133
     12       0.000002  -0.159963   0.000001   0.000000   0.144445  -0.000000
     13      -0.000003   0.103925   0.000000  -0.000000  -0.039411   0.000000
     14       0.139785  -0.000000  -0.023414  -0.005891   0.000000  -0.046874
     15      -0.000001  -0.010827   0.000000   0.000000   0.109522   0.000000
     16      -0.000001   0.020460   0.000000   0.000000   0.085458  -0.000001
     17      -0.035630   0.000000   0.002152   0.000078   0.000001   0.164811
     18      -0.000001   0.083704   0.000002  -0.000002   0.047962   0.000001
     19       0.000004   0.482099  -0.000008   0.000007   0.119917   0.000001
     20       0.067482   0.000006   0.824913  -0.668593  -0.000002  -0.008196
     21      -0.000008  -0.550767  -0.000001  -0.000002  -0.201256  -0.000000
     22      -0.000002  -0.166638   0.000004   0.000007  -0.092306  -0.000000
     23      -0.043733  -0.000002  -0.471004  -0.721089   0.000005   0.008859
     24      -0.000002   0.064840   0.000001   0.000000  -0.225077   0.000001
     25      -0.000003  -0.206937  -0.000001  -0.000000  -0.034844  -0.000000
     26      -0.001550   0.000002   0.207662   0.015354   0.000007   0.032482
     27      -0.255210  -0.115641   0.000734  -0.017863  -0.449864   0.041998
     28      -0.138401   0.056081  -0.029678   0.005557  -0.053331   0.030812
     29      -0.182323   0.002618   0.005125  -0.000653   0.014939   0.017835
     30       0.255209  -0.115644  -0.000734   0.017862  -0.449867  -0.041997
     31       0.138406   0.056079   0.029675  -0.005557  -0.053339  -0.030811
     32      -0.182323  -0.002616   0.005125  -0.000653  -0.014936   0.017835
     33       0.000001  -0.146600   0.000001   0.000000   0.459981  -0.000002
     34      -0.000001   0.112569  -0.000000  -0.000000   0.125648  -0.000001
     35      -0.398389   0.000001   0.029976   0.004990  -0.000001   0.081734
     36      -0.000002  -0.006416   0.000000   0.000000   0.117585  -0.000001
     37       0.000008  -0.299840   0.000000   0.000001   0.237868   0.000005
     38      -0.647189   0.000001   0.069301   0.016591  -0.000002  -0.736568
     39      -0.000005   0.280149  -0.000000  -0.000000   0.059317  -0.000003
     40      -0.000005   0.173685  -0.000000  -0.000000   0.063840   0.000002
     41       0.399197  -0.000000  -0.033038  -0.004877  -0.000005  -0.643250
                 18         19         20         21         22         23    
      0      -0.129704   0.000001  -0.000000   0.147132   0.000001  -0.011064
      1      -0.011578   0.000000  -0.000000  -0.014959  -0.000000   0.025027
      2       0.000001   0.015785  -0.000630  -0.000001  -0.000373   0.000000
      3      -0.076478  -0.000000   0.000000  -0.019683  -0.000001   0.047777
      4       0.022552   0.000001  -0.000000   0.045325   0.000001  -0.043380
      5      -0.000001  -0.105286   0.007740   0.000001  -0.012847  -0.000001
      6       0.131778  -0.000001   0.000000  -0.145817  -0.000001  -0.043577
      7       0.123682  -0.000001   0.000000   0.041629   0.000002  -0.085274
      8      -0.000000   0.009627   0.006338   0.000000  -0.048712   0.000000
      9       0.118834   0.000000  -0.000000   0.105890   0.000001  -0.066626
     10      -0.120716   0.000001  -0.000000  -0.057090  -0.000002   0.147653
     11      -0.000001  -0.031861  -0.039334  -0.000002   0.190678   0.000001
     12      -0.031848  -0.000000  -0.000000   0.020580  -0.000000   0.122590
     13      -0.007960   0.000000   0.000000  -0.025672   0.000001  -0.089575
     14       0.000000   0.022000  -0.046234   0.000001  -0.142351  -0.000001
     15      -0.109402   0.000000   0.000000  -0.084060  -0.000000  -0.084548
     16       0.005562  -0.000000   0.000000  -0.009621  -0.000000   0.038699
     17       0.000001  -0.009061  -0.005695  -0.000000   0.019780   0.000000
     18      -0.227310   0.000002  -0.000000   0.280153   0.000002  -0.034389
     19      -0.413698   0.000006  -0.000000   0.555712   0.000006  -0.094898
     20      -0.000007  -0.270233   0.029947   0.000005  -0.086673  -0.000001
     21       0.200008   0.000000  -0.000000  -0.344172  -0.000003   0.143548
     22       0.064288  -0.000003   0.000000  -0.130866  -0.000003   0.066233
     23       0.000004   0.406007  -0.046768  -0.000002   0.131891   0.000001
     24      -0.067304   0.000002   0.000000  -0.290771  -0.000005   0.250227
     25       0.028816  -0.000006   0.000001  -0.029896  -0.000002   0.011647
     26       0.000012   0.846613  -0.075530  -0.000004   0.189997   0.000002
     27       0.102341   0.067334   0.106658   0.158917  -0.391664  -0.257983
     28      -0.080014   0.073729   0.053110  -0.074424  -0.421528   0.226535
     29       0.010252   0.043116   0.036211  -0.000414  -0.239217  -0.018363
     30       0.102335  -0.067331  -0.106659   0.158908   0.391667  -0.257978
     31      -0.080021  -0.073728  -0.053110  -0.074431   0.421522   0.226541
     32      -0.010248   0.043116   0.036211   0.000419  -0.239218   0.018358
     33       0.269966  -0.000004  -0.000000   0.209650   0.000000   0.484318
     34       0.162584  -0.000002  -0.000004   0.081223  -0.000001   0.116088
     35       0.000002   0.017027   0.726139  -0.000001   0.311165   0.000003
     36      -0.102296   0.000000   0.000000  -0.080806  -0.000000  -0.074057
     37      -0.549876   0.000003   0.000003  -0.381976  -0.000002  -0.394359
     38      -0.000008  -0.032379  -0.354755  -0.000003   0.074008  -0.000002
     39       0.354576  -0.000002   0.000001   0.198540   0.000000   0.341099
     40       0.241060  -0.000002  -0.000003   0.132912   0.000000   0.261216
     41      -0.000002   0.085875   0.550680   0.000002  -0.022809   0.000001
                 24         25         26         27         28         29    
      0       0.029219  -0.000000   0.000034  -0.009858  -0.009462  -0.000518
      1      -0.175195   0.000002  -0.012839  -0.078477  -0.023029   0.007261
      2      -0.000001   0.001812  -0.000000  -0.000001  -0.000000   0.000000
      3      -0.225210   0.000003  -0.006508   0.038220  -0.016528   0.029572
      4       0.249189  -0.000003   0.009191   0.051498  -0.032777   0.001543
      5       0.000002  -0.002753   0.000000   0.000000  -0.000000  -0.000000
      6       0.222314  -0.000002   0.001826  -0.065986   0.004998  -0.001107
      7      -0.155939   0.000002  -0.007045   0.048518   0.047957   0.007803
      8      -0.000002  -0.045702  -0.000000   0.000000   0.000000   0.000000
      9      -0.057197  -0.000000  -0.001536   0.051602  -0.148823  -0.073478
     10       0.129598  -0.000001   0.023785  -0.047417   0.036873  -0.007717
     11       0.000001   0.035367   0.000000   0.000000   0.000000  -0.000000
     12       0.028359  -0.000000  -0.060477  -0.008665   0.025042   0.104023
     13      -0.023480  -0.000000   0.082644   0.001989  -0.039088   0.059743
     14       0.000002   0.041539   0.000000   0.000000  -0.000000   0.000000
     15      -0.019234   0.000000   0.025007   0.003203  -0.015349  -0.001022
     16       0.022230   0.000000  -0.115848   0.008393  -0.004153   0.040500
     17       0.000000  -0.001460  -0.000001   0.000000   0.000000   0.000000
     18       0.084690  -0.000001   0.002447  -0.043005   0.044163  -0.037685
     19       0.172149  -0.000003   0.002190  -0.182787   0.191300  -0.141833
     20       0.000001   0.007896  -0.000000  -0.000002   0.000001  -0.000001
     21      -0.688175   0.000008  -0.037814  -0.330838   0.158524  -0.110185
     22      -0.364176   0.000005  -0.023215  -0.172051   0.024782  -0.025103
     23      -0.000002  -0.040536   0.000000   0.000000   0.000000   0.000000
     24      -0.107761   0.000000   0.106281   0.824754   0.362248  -0.023154
     25       0.287974  -0.000004   0.042191   0.293954   0.074006  -0.013891
     26       0.000003   0.023966   0.000000   0.000001  -0.000000   0.000000
     27       0.018896   0.537754   0.030189  -0.099564   0.528618   0.115831
     28      -0.000318  -0.451448   0.033295   0.041766  -0.263238  -0.033818
     29      -0.027138  -0.033913   0.012458  -0.006901   0.068115   0.052508
     30       0.018852  -0.537751   0.030188  -0.099566   0.528624   0.115831
     31      -0.000281   0.451446   0.033296   0.041768  -0.263241  -0.033819
     32       0.027135  -0.033918  -0.012458   0.006900  -0.068114  -0.052508
     33      -0.017097   0.000000   0.689011  -0.102772   0.115044  -0.205395
     34      -0.047552   0.000001   0.511245  -0.051390   0.003904  -0.113992
     35      -0.000002  -0.052412   0.000002  -0.000000  -0.000000  -0.000000
     36      -0.015247   0.000000   0.011079   0.003199  -0.010013  -0.009775
     37      -0.061339   0.000002  -0.012732   0.010535   0.118021  -0.715407
     38      -0.000002  -0.039866  -0.000000   0.000000   0.000001  -0.000004
     39       0.085447   0.000000  -0.342290   0.007384   0.160972  -0.525886
     40       0.077572  -0.000000  -0.318738   0.010897   0.094130  -0.253390
     41       0.000001   0.006387  -0.000000  -0.000000   0.000000  -0.000000
                 30         31         32         33         34         35    
      0      -0.020977  -0.004432   0.236094   0.070409   0.000086   0.000000
      1      -0.050289  -0.009548   0.243739   0.072418   0.001597   0.000000
      2      -0.000000  -0.000000   0.000001   0.000000   0.000000  -0.000050
      3      -0.101184  -0.000528  -0.317776  -0.103479  -0.001910  -0.000000
      4      -0.029332   0.012199  -0.240473  -0.077902  -0.001192  -0.000000
      5       0.000000   0.000000  -0.000001  -0.000000   0.000000  -0.000416
      6       0.028359   0.001606   0.056579   0.030167   0.002309   0.000000
      7       0.004237  -0.016944   0.017645   0.009797  -0.002768  -0.000000
      8      -0.000000   0.000000  -0.000000  -0.000000   0.000000  -0.000168
      9       0.036460  -0.023372   0.017732  -0.043215  -0.036260  -0.000002
     10      -0.023634  -0.070565  -0.006634  -0.039171  -0.054369  -0.000003
     11       0.000000   0.000000   0.000000  -0.000000  -0.000005   0.094093
     12       0.006417  -0.004250  -0.082500   0.266007  -0.001692  -0.000000
     13       0.021496   0.001316  -0.087346   0.313224   0.002582   0.000000
     14       0.000000  -0.000000  -0.000000   0.000001  -0.000000   0.000625
     15       0.010155  -0.003829   0.060899  -0.194961   0.000079   0.000000
     16       0.018047  -0.006539   0.093671  -0.300970   0.000234   0.000000
     17       0.000000  -0.000000   0.000000  -0.000001  -0.000000   0.000130
     18       0.149449   0.003133   0.126178   0.042953   0.003072   0.000000
     19       0.637208   0.028233  -0.393489  -0.099092   0.002399   0.000000
     20       0.000006   0.000000  -0.000003  -0.000001  -0.000000   0.001510
     21       0.540490   0.012603  -0.474977  -0.123368   0.005207   0.000000
     22       0.111762  -0.005383   0.109620   0.038245  -0.016558  -0.000001
     23      -0.000001  -0.000000   0.000001   0.000000  -0.000000  -0.001185
     24       0.300225  -0.028743   0.462765   0.159507  -0.001053  -0.000000
     25       0.086452   0.007682  -0.073536  -0.019795   0.011468   0.000001
     26      -0.000000   0.000000  -0.000003  -0.000001   0.000000   0.001010
     27      -0.182759   0.197997  -0.002746  -0.160234   0.207032   0.228150
     28       0.073075   0.521644   0.081890  -0.007083   0.340928   0.358491
     29      -0.016641   0.425417   0.054453  -0.022864  -0.581281  -0.561295
     30      -0.182762   0.197999  -0.002744  -0.160236   0.207054  -0.228127
     31       0.073076   0.521642   0.081890  -0.007083   0.340967  -0.358459
     32       0.016641  -0.425419  -0.054453   0.022864   0.581336  -0.561233
     33      -0.100556  -0.025523   0.087887  -0.409476   0.010235   0.000000
     34      -0.037110  -0.013848  -0.008713  -0.013975  -0.031508  -0.000002
     35      -0.000000   0.000000  -0.000000   0.000001  -0.000000  -0.001718
     36       0.007839  -0.002468   0.075841  -0.241846   0.006942   0.000000
     37      -0.177032   0.055126  -0.107883   0.333495  -0.000294  -0.000000
     38      -0.000001   0.000000  -0.000000   0.000002  -0.000000   0.000969
     39      -0.158314   0.053370  -0.150815   0.476305  -0.002138  -0.000000
     40      -0.075506   0.025300  -0.005078   0.005859   0.006011   0.000000
     41      -0.000000  -0.000000  -0.000000  -0.000000  -0.000000  -0.000038
                 36         37         38         39         40         41    
      0       0.000177   0.000012  -0.047064  -0.014616  -0.000828  -0.070054
      1       0.000275   0.000124  -0.039474  -0.029909   0.000818   0.069462
      2       0.000000  -0.000000  -0.000000  -0.000000   0.000000   0.000001
      3       0.000050   0.000134   0.012069  -0.015136   0.000329  -0.003982
      4       0.000507   0.000096  -0.026240   0.080810  -0.000607   0.010200
      5      -0.000000   0.000000  -0.000000   0.000001  -0.000000   0.000000
      6       0.000156   0.000270   0.000960  -0.001135  -0.000278   0.000486
      7      -0.000376   0.000061  -0.000248   0.000122  -0.000270   0.000108
      8      -0.000000   0.000000  -0.000000  -0.000000  -0.000000  -0.000000
      9       0.001792   0.001865  -0.000331   0.000624   0.000200   0.000370
     10       0.002452   0.001176   0.000263  -0.002070   0.000712   0.000654
     11      -0.000000   0.000000   0.000000   0.000000  -0.000000  -0.000000
     12      -0.037170  -0.010846  -0.000350   0.000032  -0.004121   0.000159
     13       0.067918   0.035108   0.000709  -0.000011   0.005652  -0.000323
     14       0.000000   0.000000   0.000000  -0.000000   0.000000  -0.000000
     15       0.020777  -0.041798   0.000303  -0.000704  -0.079706   0.000764
     16       0.011581  -0.050671  -0.000173   0.000304   0.058102  -0.000561
     17       0.000000  -0.000000  -0.000000   0.000000   0.000000  -0.000000
     18      -0.004284  -0.001371   0.672275   0.192358   0.007142   0.671474
     19       0.001060   0.000350  -0.166965  -0.046452  -0.001736  -0.148520
     20       0.000000  -0.000000  -0.000003  -0.000001  -0.000000  -0.000004
     21       0.001376   0.000655  -0.163553  -0.088752   0.002050   0.173163
     22      -0.004246  -0.002079   0.591705   0.328136  -0.007935  -0.687874
     23      -0.000000  -0.000000   0.000005   0.000003  -0.000000  -0.000007
     24       0.001579  -0.000164  -0.107484   0.254716  -0.001712   0.032122
     25      -0.006219  -0.000289   0.356422  -0.878756   0.005838  -0.112851
     26      -0.000000   0.000000   0.000003  -0.000007   0.000000  -0.000001
     27      -0.008413  -0.007098   0.002200   0.004008  -0.000125  -0.003332
     28      -0.008863  -0.007239   0.000780   0.005921  -0.000572  -0.003862
     29       0.014778   0.010700  -0.003216  -0.009011   0.001079   0.007915
     30      -0.008413  -0.007098   0.002200   0.004008  -0.000125  -0.003332
     31      -0.008864  -0.007239   0.000780   0.005921  -0.000572  -0.003862
     32      -0.014778  -0.010700   0.003216   0.009011  -0.001079  -0.007915
     33       0.448073   0.180399   0.003985  -0.001501   0.036838  -0.000907
     34      -0.798016  -0.324521  -0.007018   0.001507  -0.068470   0.002007
     35      -0.000004  -0.000002  -0.000000   0.000000  -0.000000   0.000000
     36      -0.350190   0.717229  -0.002469   0.005978   0.595486  -0.006442
     37       0.001646  -0.002246   0.000129   0.000150   0.010225  -0.000280
     38       0.000001  -0.000001  -0.000000  -0.000000  -0.000001   0.000000
     39       0.089065  -0.283503  -0.000895   0.002287   0.367270  -0.003681
     40      -0.156357   0.511111   0.001593  -0.003709  -0.703148   0.007043
     41      -0.000001   0.000003  -0.000000  -0.000000  -0.000004   0.000000


-----------
IR SPECTRUM
-----------

 Mode    freq (cm**-1)   T**2         TX         TY         TZ
-------------------------------------------------------------------
   6:        60.55    0.254006  (  0.000052   0.000078   0.503990)
   7:       166.49    0.051926  (  0.000072   0.000060  -0.227872)
   8:       185.11    0.273636  ( -0.432971  -0.293552  -0.000031)
   9:       252.64    7.206979  (  0.000088   0.000113  -2.684582)
  10:       285.56    1.594152  ( -1.195142   0.407170   0.000067)
  11:       554.36    1.927764  (  0.257083  -1.364431   0.000066)
  12:       572.87    8.802124  (  0.000032   0.000011  -2.966837)
  13:       619.71    0.167595  ( -0.152004  -0.380119  -0.000001)
  14:       717.34    0.697191  ( -0.000107  -0.000150   0.834979)
  15:       822.94   59.011206  ( -0.000059   0.000024  -7.681875)
  16:       934.99    1.894270  (  0.957033  -0.989120  -0.000004)
  17:       946.80   32.940682  ( -0.000015   0.000033  -5.739397)
  18:       955.43   12.480198  ( -1.294990  -3.286822   0.000006)
  19:       995.64   11.811624  (  0.000202   0.000251   3.436804)
  20:      1028.72    9.700000  (  0.000059   0.000101   3.114482)
  21:      1042.20   41.767940  (  6.278011  -1.534442  -0.000025)
  22:      1056.15   10.835035  (  0.000082  -0.000029   3.291661)
  23:      1123.74   15.760450  (  2.251945   3.269433   0.000007)
  24:      1258.92  192.466694  (-13.496135   3.212638   0.000032)
  25:      1269.87    0.641568  (  0.000243  -0.000109   0.800980)
  26:      1331.36    3.791262  ( -1.945783  -0.072053  -0.000001)
  27:      1373.90   58.508133  (  7.598781  -0.875595   0.000003)
  28:      1426.85   25.220084  ( -5.006791  -0.390030  -0.000008)
  29:      1464.59    5.554959  ( -1.335294  -1.942151  -0.000012)
  30:      1467.91    5.048786  ( -1.856540   1.265719   0.000015)
  31:      1528.85   14.615991  (  3.819138   0.173706   0.000005)
  32:      1715.33  164.731455  (-12.223990  -3.912228  -0.000015)
  33:      1739.94    2.456895  ( -1.412278   0.679975  -0.000000)
  34:      2983.93   24.189608  ( -0.190063  -4.914619  -0.000347)
  35:      3006.22   44.163349  ( -0.000009  -0.000234   6.645551)
  36:      3156.19   14.843849  ( -1.217272   3.655420   0.000015)
  37:      3176.39   10.166356  ( -3.172519   0.318561   0.000002)
  38:      3185.35    4.903251  (  0.934046  -2.007688  -0.000015)
  39:      3204.45   11.939210  ( -1.863841   2.909520   0.000021)
  40:      3259.20   11.376285  ( -3.110437   1.304403   0.000010)
  41:      3269.11   13.597844  ( -3.022207   2.112843   0.000023)

The first frequency considered to be a vibration is 6
The total number of vibrations considered is 36


--------------------------
THERMOCHEMISTRY AT 298.15K
--------------------------

Temperature         ... 298.15 K
Pressure            ... 1.00 atm
Total Mass          ... 84.12 AMU

Throughout the following assumptions are being made:
  (1) The electronic state is orbitally nondegenerate
  (2) There are no thermally accessible electronically excited states
  (3) Hindered rotations indicated by low frequency modes are not
      treated as such but are treated as vibrations and this may
      cause some error
  (4) All equations used are the standard statistical mechanics
      equations for an ideal gas
  (5) All vibrations are strictly harmonic

freq.      60.55  E(vib)   ...       0.51 
freq.     166.49  E(vib)   ...       0.39 
freq.     185.11  E(vib)   ...       0.37 
freq.     252.64  E(vib)   ...       0.30 
freq.     285.56  E(vib)   ...       0.28 
freq.     554.36  E(vib)   ...       0.12 
freq.     572.87  E(vib)   ...       0.11 
freq.     619.71  E(vib)   ...       0.09 
freq.     717.34  E(vib)   ...       0.07 
freq.     822.94  E(vib)   ...       0.05 
freq.     934.99  E(vib)   ...       0.03 
freq.     946.80  E(vib)   ...       0.03 
freq.     955.43  E(vib)   ...       0.03 
freq.     995.64  E(vib)   ...       0.02 
freq.    1028.72  E(vib)   ...       0.02 
freq.    1042.20  E(vib)   ...       0.02 
freq.    1056.15  E(vib)   ...       0.02 
freq.    1123.74  E(vib)   ...       0.01 
freq.    1258.92  E(vib)   ...       0.01 
freq.    1269.87  E(vib)   ...       0.01 
freq.    1331.36  E(vib)   ...       0.01 
freq.    1373.90  E(vib)   ...       0.01 
freq.    1426.85  E(vib)   ...       0.00 
freq.    1464.59  E(vib)   ...       0.00 
freq.    1467.91  E(vib)   ...       0.00 
freq.    1528.85  E(vib)   ...       0.00 
freq.    1715.33  E(vib)   ...       0.00 
freq.    1739.94  E(vib)   ...       0.00 
freq.    2983.93  E(vib)   ...       0.00 
freq.    3006.22  E(vib)   ...       0.00 
freq.    3156.19  E(vib)   ...       0.00 
freq.    3176.39  E(vib)   ...       0.00 
freq.    3185.35  E(vib)   ...       0.00 
freq.    3204.45  E(vib)   ...       0.00 
freq.    3259.20  E(vib)   ...       0.00 
freq.    3269.11  E(vib)   ...       0.00 

------------
INNER ENERGY
------------

The inner energy is: U= E(el) + E(ZPE) + E(vib) + E(rot) + E(trans)
    E(el)   - is the total energy from the electronic structure calculation
              = E(kin-el) + E(nuc-el) + E(el-el) + E(nuc-nuc)
    E(ZPE)  - the the zero temperature vibrational energy from the frequency calculation
    E(vib)  - the the finite temperature correction to E(ZPE) due to population
              of excited vibrational states
    E(rot)  - is the rotational thermal energy
    E(trans)- is the translational thermal energy

Summary of contributions to the inner energy U:
Electronic energy                ...   -270.33335369 Eh
Zero point energy                ...      0.11878275 Eh      74.54 kcal/mol
Thermal vibrational correction   ...      0.00398417 Eh       2.50 kcal/mol
Thermal rotational correction    ...      0.00141627 Eh       0.89 kcal/mol
Thermal translational correction ...      0.00141627 Eh       0.89 kcal/mol
-----------------------------------------------------------------------
Total thermal energy                   -270.20775423 Eh


Summary of corrections to the electronic energy:
(perhaps to be used in another calculation)
Total thermal correction                  0.00681671 Eh       4.28 kcal/mol
Non-thermal (ZPE) correction              0.11878275 Eh      74.54 kcal/mol
-----------------------------------------------------------------------
Total correction                          0.12559946 Eh      78.81 kcal/mol


--------
ENTHALPY
--------

The enthalpy is H = U + kB*T
                kB is Boltzmann's constant
Total free energy                 ...   -270.20775423 Eh 
Thermal Enthalpy correction       ...      0.00094421 Eh       0.59 kcal/mol
-----------------------------------------------------------------------
Total Enthalpy                    ...   -270.20681002 Eh


Note: Only C1 symmetry has been detected, increase convergence thresholds 
      if your molecule has a higher symmetry. Symmetry factor of 1.0 is   
      used for the rotational entropy correction. 
 

Note: Rotational entropy computed according to Herzberg 
Infrared and Raman Spectra, Chapter V,1, Van Nostrand Reinhold, 1945 
Point Group:  C1, Symmetry Number:   1  
Rotational constants in cm-1:     0.416084     0.062346     0.054777 

Vibrational entropy computed according to the QRRHO of S. Grimme
Chem.Eur.J. 2012 18 9955


-------
ENTROPY
-------

The entropy contributions are T*S = T*(S(el)+S(vib)+S(rot)+S(trans))
     S(el)   - electronic entropy
     S(vib)  - vibrational entropy
     S(rot)  - rotational entropy
     S(trans)- translational entropy
The entropies will be listed as mutliplied by the temperature to get
units of energy

Electronic entropy                ...      0.00000000 Eh      0.00 kcal/mol
Vibrational entropy               ...      0.00678266 Eh      4.26 kcal/mol
Rotational entropy                ...      0.01260603 Eh      7.91 kcal/mol
Translational entropy             ...      0.01862630 Eh     11.69 kcal/mol
-----------------------------------------------------------------------
Final entropy term                ...      0.03801499 Eh     23.85 kcal/mol

In case the symmetry of your molecule has not been determined correctly
or in case you have a reason to use a different symmetry number we print 
out the resulting rotational entropy values for sn=1,12 :
 --------------------------------------------------------
|  sn= 1 | S(rot)=       0.01260603 Eh      7.91 kcal/mol|
|  sn= 2 | S(rot)=       0.01195158 Eh      7.50 kcal/mol|
|  sn= 3 | S(rot)=       0.01156874 Eh      7.26 kcal/mol|
|  sn= 4 | S(rot)=       0.01129712 Eh      7.09 kcal/mol|
|  sn= 5 | S(rot)=       0.01108643 Eh      6.96 kcal/mol|
|  sn= 6 | S(rot)=       0.01091429 Eh      6.85 kcal/mol|
|  sn= 7 | S(rot)=       0.01076874 Eh      6.76 kcal/mol|
|  sn= 8 | S(rot)=       0.01064266 Eh      6.68 kcal/mol|
|  sn= 9 | S(rot)=       0.01053145 Eh      6.61 kcal/mol|
|  sn=10 | S(rot)=       0.01043198 Eh      6.55 kcal/mol|
|  sn=11 | S(rot)=       0.01034199 Eh      6.49 kcal/mol|
|  sn=12 | S(rot)=       0.01025983 Eh      6.44 kcal/mol|
 --------------------------------------------------------


-------------------
GIBBS FREE ENERGY
-------------------

The Gibbs free energy is G = H - T*S

Total enthalpy                    ...   -270.20681002 Eh 
Total entropy correction          ...     -0.03801499 Eh    -23.85 kcal/mol
-----------------------------------------------------------------------
Final Gibbs free energy         ...   -270.24482501 Eh

For completeness - the Gibbs free energy minus the electronic energy
G-E(el)                           ...      0.08852868 Eh     55.55 kcal/mol


Timings for individual modules:

Sum of individual times         ...       57.544 sec (=   0.959 min)
GTO integral calculation        ...        0.866 sec (=   0.014 min)   1.5 %
SCF iterations                  ...        9.422 sec (=   0.157 min)  16.4 %
Analytical frequency calculation...       47.256 sec (=   0.788 min)  82.1 %
                             ****ORCA TERMINATED NORMALLY****
TOTAL RUN TIME: 0 days 0 hours 0 minutes 57 seconds 964 msec
