
                                 *****************
                                 * O   R   C   A *
                                 *****************

           --- An Ab Initio, DFT and Semiempirical electronic structure package ---

                  #######################################################
                  #                        -***-                        #
                  #          Department of theory and spectroscopy      #
                  #               Directorship: Frank Neese             #
                  #        Max Planck Institute fuer Kohlenforschung    #
                  #                Kaiser Wilhelm Platz 1               #
                  #                 D-45470 Muelheim/Ruhr               #
                  #                      Germany                        #
                  #                                                     #
                  #                  All rights reserved                #
                  #                        -***-                        #
                  #######################################################


                         Program Version 4.2.1 -  RELEASE  -


 With contributions from (in alphabetic order):
   Daniel Aravena         : Magnetic Suceptibility
   Michael Atanasov       : Ab Initio Ligand Field Theory (pilot matlab implementation)
   Alexander A. Auer      : GIAO ZORA, VPT2
   Ute Becker             : Parallelization
   Giovanni Bistoni       : ED, misc. LED, open-shell LED, HFLD
   Martin Brehm           : Molecular dynamics
   Dmytro Bykov           : SCF Hessian
   Vijay G. Chilkuri      : MRCI spin determinant printing, contributions to CSF-ICE
   Dipayan Datta          : RHF DLPNO-CCSD density
   Achintya Kumar Dutta   : EOM-CC, STEOM-CC
   Dmitry Ganyushin       : Spin-Orbit,Spin-Spin,Magnetic field MRCI
   Miquel Garcia          : C-PCM Hessian, Gaussian charge scheme
   Yang Guo               : DLPNO-NEVPT2, CIM, IAO-localization
   Andreas Hansen         : Spin unrestricted coupled pair/coupled cluster methods
   Benjamin Helmich-Paris : CASSCF linear response (MC-RPA)
   Lee Huntington         : MR-EOM, pCC
   Robert Izsak           : Overlap fitted RIJCOSX, COSX-SCS-MP3, EOM
   Christian Kollmar      : KDIIS, OOCD, Brueckner-CCSD(T), CCSD density
   Simone Kossmann        : Meta GGA functionals, TD-DFT gradient, OOMP2, MP2 Hessian
   Martin Krupicka        : AUTO-CI
   Lucas Lang             : DCDCAS
   Dagmar Lenk            : GEPOL surface, SMD
   Dimitrios Liakos       : Extrapolation schemes; Compound Job, initial MDCI parallelization
   Dimitrios Manganas     : Further ROCIS development; embedding schemes
   Dimitrios Pantazis     : SARC Basis sets
   Taras Petrenko         : DFT Hessian,TD-DFT gradient, ASA, ECA, R-Raman, ABS, FL, XAS/XES, NRVS
   Peter Pinski           : DLPNO-MP2, DLPNO-MP2 Gradient
   Christoph Reimann      : Effective Core Potentials
   Marius Retegan         : Local ZFS, SOC
   Christoph Riplinger    : Optimizer, TS searches, QM/MM, DLPNO-CCSD(T), (RO)-DLPNO pert. Triples
   Tobias Risthaus        : Range-separated hybrids, TD-DFT gradient, RPA, STAB
   Michael Roemelt        : Original ROCIS implementation
   Masaaki Saitow         : Open-shell DLPNO-CCSD energy and density
   Barbara Sandhoefer     : DKH picture change effects
   Avijit Sen             : IP-ROCIS
   Kantharuban Sivalingam : CASSCF convergence, NEVPT2, FIC-MRCI
   Bernardo de Souza      : ESD, SOC TD-DFT
   Georgi Stoychev        : AutoAux, RI-MP2 NMR
   Willem Van den Heuvel  : Paramagnetic NMR
   Boris Wezisla          : Elementary symmetry handling
   Frank Wennmohs         : Technical directorship


 We gratefully acknowledge several colleagues who have allowed us to
 interface, adapt or use parts of their codes:
   Stefan Grimme, W. Hujo, H. Kruse,             : VdW corrections, initial TS optimization,
                  C. Bannwarth                     DFT functionals, gCP, sTDA/sTD-DF
   Ed Valeev, F. Pavosevic, A. Kumar             : LibInt (2-el integral package), F12 methods
   Garnet Chan, S. Sharma, J. Yang, R. Olivares  : DMRG
   Ulf Ekstrom                                   : XCFun DFT Library
   Mihaly Kallay                                 : mrcc  (arbitrary order and MRCC methods)
   Andreas Klamt, Michael Diedenhofen            : otool_cosmo (COSMO solvation model)
   Jiri Pittner, Ondrej Demel                    : Mk-CCSD
   Frank Weinhold                                : gennbo (NPA and NBO analysis)
   Christopher J. Cramer and Donald G. Truhlar   : smd solvation model
   Lars Goerigk                                  : TD-DFT with DH, B97 family of functionals
   V. Asgeirsson, H. Jonsson                     : NEB implementation
   FAccTs GmbH                                   : IRC, NEB, NEB-TS, Multilevel, MM, QM/MM, CI optimization
   S Lehtola, MJT Oliveira, MAL Marques          : LibXC Library


 Your calculation uses the libint2 library for the computation of 2-el integrals
 For citations please refer to: http://libint.valeyev.net

 Your ORCA version has been built with support for libXC version: 4.2.3
 For citations please refer to: https://tddft.org/programs/libxc/

 This ORCA versions uses:
   CBLAS   interface :  Fast vector & matrix operations
   LAPACKE interface :  Fast linear algebra routines
   SCALAPACK package :  Parallel linear algebra routines




***************************************
The coordinates will be read from file: claisen_ts.xyz
***************************************


----- Orbital basis set information -----
Your calculation utilizes the basis: 6-31G*
   H-He, Li-Ne : W. J. Hehre, R. Ditchfield and J.A. Pople, J. Chem. Phys. 56, 2257 (1972).
                 Note: He and Ne are unpublished basis sets taken from the Gaussian program.
                 Note: Li and B from J. D. Dill and J. A. Pople, J. Chem. Phys. 62, 2921 (1975).
   Na - Ar     : M. M. Francl, W. J. Pietro, W. J. Hehre, J. S. Binkley, M. S. Gordon, 
                 D. J. DeFrees and J. A. Pople, J. Chem. Phys. 77, 3654 (1982).
   K - Zn      : V. A. Rassolov, J. A. Pople, M. A. Ratner, and T. L. Windus, J. Chem. Phys. 109, 1223 (1998).

----- AuxJ basis set information -----
Your calculation utilizes the auxiliary basis: def2/J
   F. Weigend, Phys. Chem. Chem. Phys. 8, 1057 (2006).

================================================================================
                                        WARNINGS
                       Please study these warnings very carefully!
================================================================================


INFO   : the flag for use of LIBINT has been found!

================================================================================
                                       INPUT FILE
================================================================================
NAME = claisen_ts_freq.inp
|  1> !B3LYP 6-31G* RIJCOSX def2/J Freq
|  2> !pal4
|  3> *xyzfile 0 1 claisen_ts.xyz
|  4> 
|  5>                          ****END OF INPUT****
================================================================================

                       ****************************
                       * Single Point Calculation *
                       ****************************

---------------------------------
CARTESIAN COORDINATES (ANGSTROEM)
---------------------------------
  C     -1.474032    0.786774   -0.283331
  C     -1.296078   -0.476777    0.256320
  O     -0.512902   -1.359242   -0.257853
  C      1.291759   -0.901845    0.187721
  C      1.379160    0.410519   -0.300035
  C      0.673744    1.429519    0.315326
  H     -2.153042    1.487010    0.198833
  H     -1.239230    0.973314   -1.325004
  H     -1.694692   -0.663780    1.269444
  H      1.774509   -1.712494   -0.347055
  H      1.175597   -1.072994    1.253923
  H      1.706592    0.552626   -1.328300
  H      0.639070    2.423886   -0.122641
  H      0.448795    1.383584    1.376553

----------------------------
CARTESIAN COORDINATES (A.U.)
----------------------------
  NO LB      ZA    FRAG     MASS         X           Y           Z
   0 C     6.0000    0    12.011   -2.785516    1.486788   -0.535418
   1 C     6.0000    0    12.011   -2.449232   -0.900979    0.484374
   2 O     8.0000    0    15.999   -0.969244   -2.568595   -0.487272
   3 C     6.0000    0    12.011    2.441071   -1.704239    0.354741
   4 C     6.0000    0    12.011    2.606234    0.775768   -0.566984
   5 C     6.0000    0    12.011    1.273191    2.701399    0.595880
   6 H     1.0000    0     1.008   -4.068659    2.810042    0.375739
   7 H     1.0000    0     1.008   -2.341805    1.839296   -2.503895
   8 H     1.0000    0     1.008   -3.202503   -1.254363    2.398902
   9 H     1.0000    0     1.008    3.353335   -3.236145   -0.655839
  10 H     1.0000    0     1.008    2.221557   -2.027664    2.369571
  11 H     1.0000    0     1.008    3.224991    1.044311   -2.510123
  12 H     1.0000    0     1.008    1.207667    4.580481   -0.231758
  13 H     1.0000    0     1.008    0.848099    2.614595    2.601308

--------------------------------
INTERNAL COORDINATES (ANGSTROEM)
--------------------------------
 C      0   0   0     0.000000000000     0.00000000     0.00000000
 C      1   0   0     1.385443459186     0.00000000     0.00000000
 O      2   1   0     1.287044052660   123.22151307     0.00000000
 C      3   2   1     1.914301115751   108.47196483    76.90637643
 C      4   3   2     1.402798375662   101.61519635   304.66475634
 C      5   4   3     1.383705563953   120.16948528    69.08443190
 H      1   2   3     1.088056342387   119.63622949   179.87576364
 H      1   2   3     1.083979356975   120.22766771    21.27654999
 H      2   1   3     1.104664512598   117.72827009   168.19002553
 H      4   3   2     1.084520740663    97.25351096   181.92419863
 H      4   3   2     1.086081105289    95.16467308    66.42894078
 H      5   4   3     1.088454984327   117.99267973   269.97351166
 H      6   5   4     1.087098948572   120.71064841   187.36435300
 H      6   5   4     1.085778078209   120.60578175    29.41247488

---------------------------
INTERNAL COORDINATES (A.U.)
---------------------------
 C      0   0   0     0.000000000000     0.00000000     0.00000000
 C      1   0   0     2.618108711894     0.00000000     0.00000000
 O      2   1   0     2.432160781820   123.22151307     0.00000000
 C      3   2   1     3.617504846628   108.47196483    76.90637643
 C      4   3   2     2.650904751110   101.61519635   304.66475634
 C      5   4   3     2.614824565853   120.16948528    69.08443190
 H      1   2   3     2.056128505388   119.63622949   179.87576364
 H      1   2   3     2.048424119506   120.22766771    21.27654999
 H      2   1   3     2.087513398671   117.72827009   168.19002553
 H      4   3   2     2.049447186411    97.25351096   181.92419863
 H      4   3   2     2.052395848223    95.16467308    66.42894078
 H      5   4   3     2.056881829480   117.99267973   269.97351166
 H      6   5   4     2.054319293275   120.71064841   187.36435300
 H      6   5   4     2.051823210031   120.60578175    29.41247488

---------------------
BASIS SET INFORMATION
---------------------
There are 3 groups of distinct atoms

 Group   1 Type C   : 10s4p1d contracted to 3s2p1d pattern {631/31/1}
 Group   2 Type O   : 10s4p1d contracted to 3s2p1d pattern {631/31/1}
 Group   3 Type H   : 4s contracted to 2s pattern {31}

Atom   0C    basis set group =>   1
Atom   1C    basis set group =>   1
Atom   2O    basis set group =>   2
Atom   3C    basis set group =>   1
Atom   4C    basis set group =>   1
Atom   5C    basis set group =>   1
Atom   6H    basis set group =>   3
Atom   7H    basis set group =>   3
Atom   8H    basis set group =>   3
Atom   9H    basis set group =>   3
Atom  10H    basis set group =>   3
Atom  11H    basis set group =>   3
Atom  12H    basis set group =>   3
Atom  13H    basis set group =>   3
---------------------------------
AUXILIARY/J BASIS SET INFORMATION
---------------------------------
There are 3 groups of distinct atoms

 Group   1 Type C   : 12s5p4d2f1g contracted to 6s4p3d1f1g pattern {711111/2111/211/2/1}
 Group   2 Type O   : 12s5p4d2f1g contracted to 6s4p3d1f1g pattern {711111/2111/211/2/1}
 Group   3 Type H   : 5s2p1d contracted to 3s1p1d pattern {311/2/1}

Atom   0C    basis set group =>   1
Atom   1C    basis set group =>   1
Atom   2O    basis set group =>   2
Atom   3C    basis set group =>   1
Atom   4C    basis set group =>   1
Atom   5C    basis set group =>   1
Atom   6H    basis set group =>   3
Atom   7H    basis set group =>   3
Atom   8H    basis set group =>   3
Atom   9H    basis set group =>   3
Atom  10H    basis set group =>   3
Atom  11H    basis set group =>   3
Atom  12H    basis set group =>   3
Atom  13H    basis set group =>   3


           ************************************************************
           *        Program running with 4 parallel MPI-processes     *
           *              working on a common directory               *
           ************************************************************
------------------------------------------------------------------------------
                           ORCA GTO INTEGRAL CALCULATION
                           -- RI-GTO INTEGRALS CHOSEN --
------------------------------------------------------------------------------

                         BASIS SET STATISTICS AND STARTUP INFO

Gaussian basis set:
 # of primitive gaussian shells          ...  122
 # of primitive gaussian functions       ...  194
 # of contracted shells                  ...   52
 # of contracted basis functions         ...  100
 Highest angular momentum                ...    2
 Maximum contraction depth               ...    6
Auxiliary gaussian basis set:
 # of primitive gaussian shells          ...  208
 # of primitive gaussian functions       ...  548
 # of contracted shells                  ...  130
 # of contracted aux-basis functions     ...  382
 Highest angular momentum                ...    4
 Maximum contraction depth               ...    7
Ratio of auxiliary to basis functions    ...  3.82
Integral package used                  ... LIBINT
 One Electron integrals                  ... done
 Ordering auxiliary basis shells         ... done
 Integral threshhold             Thresh  ...  1.000e-10
 Primitive cut-off               TCut    ...  1.000e-11
 Pre-screening matrix                    ... done
 Shell pair data                         ... 
 Ordering of the shell pairs             ... done (   0.000 sec) 1362 of 1378 pairs
 Determination of significant pairs      ... done (   0.000 sec)
 Creation of shell pair data             ... done (   0.000 sec)
 Storage of shell pair data              ... done (   0.006 sec)
 Shell pair data done in (   0.007 sec)
 Computing two index integrals           ... done
 Cholesky decomposition of the V-matrix  ... done


Timings:
 Total evaluation time                   ...   0.136 sec (  0.002 min)
 One electron matrix time                ...   0.011 sec (  0.000 min) =  8.3%
 Schwartz matrix evaluation time         ...   0.085 sec (  0.001 min) = 62.8%
 Two index repulsion integral time       ...   0.006 sec (  0.000 min) =  4.6%
 Cholesky decomposition of V             ...   0.006 sec (  0.000 min) =  4.7%
 Three index repulsion integral time     ...   0.000 sec (  0.000 min) =  0.0%



           ************************************************************
           *        Program running with 4 parallel MPI-processes     *
           *              working on a common directory               *
           ************************************************************
-------------------------------------------------------------------------------
                                 ORCA SCF
-------------------------------------------------------------------------------

------------
SCF SETTINGS
------------
Hamiltonian:
 Density Functional     Method          .... DFT(GTOs)
 Exchange Functional    Exchange        .... B88
   X-Alpha parameter    XAlpha          ....  0.666667
   Becke's b parameter  XBeta           ....  0.004200
 Correlation Functional Correlation     .... LYP
 LDA part of GGA corr.  LDAOpt          .... VWN-5
 Gradients option       PostSCFGGA      .... off
 Hybrid DFT is turned on
   Fraction HF Exchange ScalHFX         ....  0.200000
   Scaling of DF-GGA-X  ScalDFX         ....  0.720000
   Scaling of DF-GGA-C  ScalDFC         ....  0.810000
   Scaling of DF-LDA-C  ScalLDAC        ....  1.000000
   Perturbative correction              ....  0.000000
   Density functional embedding theory  .... OFF
   NL short-range parameter             ....  4.800000
 RI-approximation to the Coulomb term is turned on
   Number of auxiliary basis functions  .... 382
   RIJ-COSX (HFX calculated with COS-X)).... on


General Settings:
 Integral files         IntName         .... claisen_ts_freq
 Hartree-Fock type      HFTyp           .... RHF
 Total Charge           Charge          ....    0
 Multiplicity           Mult            ....    1
 Number of Electrons    NEL             ....   46
 Basis Dimension        Dim             ....  100
 Nuclear Repulsion      ENuc            ....    229.2411427308 Eh

Convergence Acceleration:
 DIIS                   CNVDIIS         .... on
   Start iteration      DIISMaxIt       ....    12
   Startup error        DIISStart       ....  0.200000
   # of expansion vecs  DIISMaxEq       ....     5
   Bias factor          DIISBfac        ....   1.050
   Max. coefficient     DIISMaxC        ....  10.000
 Newton-Raphson         CNVNR           .... off
 SOSCF                  CNVSOSCF        .... on
   Start iteration      SOSCFMaxIt      ....   150
   Startup grad/error   SOSCFStart      ....  0.003300
 Level Shifting         CNVShift        .... on
   Level shift para.    LevelShift      ....    0.2500
   Turn off err/grad.   ShiftErr        ....    0.0010
 Zerner damping         CNVZerner       .... off
 Static damping         CNVDamp         .... on
   Fraction old density DampFac         ....    0.7000
   Max. Damping (<1)    DampMax         ....    0.9800
   Min. Damping (>=0)   DampMin         ....    0.0000
   Turn off err/grad.   DampErr         ....    0.1000
 Fernandez-Rico         CNVRico         .... off

SCF Procedure:
 Maximum # iterations   MaxIter         ....   125
 SCF integral mode      SCFMode         .... Direct
   Integral package                     .... LIBINT
 Reset frequency        DirectResetFreq ....    20
 Integral Threshold     Thresh          ....  1.000e-10 Eh
 Primitive CutOff       TCut            ....  1.000e-11 Eh

Convergence Tolerance:
 Convergence Check Mode ConvCheckMode   .... Total+1el-Energy
 Convergence forced     ConvForced      .... 0
 Energy Change          TolE            ....  1.000e-06 Eh
 1-El. energy change                    ....  1.000e-03 Eh
 Orbital Gradient       TolG            ....  5.000e-05
 Orbital Rotation angle TolX            ....  5.000e-05
 DIIS Error             TolErr          ....  1.000e-06


Diagonalization of the overlap matrix:
Smallest eigenvalue                        ... 4.857e-03
Time for diagonalization                   ...    0.008 sec
Threshold for overlap eigenvalues          ... 1.000e-08
Number of eigenvalues below threshold      ... 0
Time for construction of square roots      ...    0.001 sec
Total time needed                          ...    0.009 sec

-------------------
DFT GRID GENERATION
-------------------

General Integration Accuracy     IntAcc      ...  4.340
Radial Grid Type                 RadialGrid  ... Gauss-Chebyshev
Angular Grid (max. acc.)         AngularGrid ... Lebedev-110
Angular grid pruning method      GridPruning ... 3 (G Style)
Weight generation scheme         WeightScheme... Becke
Basis function cutoff            BFCut       ...    1.0000e-10
Integration weight cutoff        WCut        ...    1.0000e-14
Grids for H and He will be reduced by one unit

# of grid points (after initial pruning)     ...  16348 (   0.0 sec)
# of grid points (after weights+screening)   ...  15231 (   0.0 sec)
nearest neighbour list constructed           ...    0.0 sec
Grid point re-assignment to atoms done       ...    0.0 sec
Grid point division into batches done        ...    0.0 sec
Reduced shell lists constructed in    0.0 sec

Total number of grid points                  ...    15231
Total number of batches                      ...      246
Average number of points per batch           ...       61
Average number of grid points per atom       ...     1088
Average number of shells per batch           ...    45.17 (86.87%)
Average number of basis functions per batch  ...    90.54 (90.54%)
Average number of large shells per batch     ...    37.59 (83.20%)
Average number of large basis fcns per batch ...    75.68 (83.59%)
Maximum spatial batch extension              ...  14.93, 18.49, 13.69 au
Average spatial batch extension              ...   0.64,  0.70,  0.64 au

Time for grid setup =    0.060 sec

------------------------------
INITIAL GUESS: MODEL POTENTIAL
------------------------------
Loading Hartree-Fock densities                     ... done
Calculating cut-offs                               ... done
Setting up the integral package                    ... done
Initializing the effective Hamiltonian             ... done
Starting the Coulomb interaction                   ... done (   0.0 sec)
Reading the grid                                   ... done
Mapping shells                                     ... done
Starting the XC term evaluation                    ... done (   0.0 sec)
  promolecular density results
     # of electrons  =     45.992029702
     EX              =    -36.180689630
     EC              =     -1.511288516
     EX+EC           =    -37.691978147
Transforming the Hamiltonian                       ... done (   0.0 sec)
Diagonalizing the Hamiltonian                      ... done (   0.0 sec)
Back transforming the eigenvectors                 ... done (   0.0 sec)
Now organizing SCF variables                       ... done
                      ------------------
                      INITIAL GUESS DONE (   0.2 sec)
                      ------------------
--------------------
COSX GRID GENERATION
--------------------

General Integration Accuracy     IntAcc      ...  3.340
Radial Grid Type                 RadialGrid  ... Gauss-Chebyshev
Angular Grid (max. acc.)         AngularGrid ... Lebedev-50
Angular grid pruning method      GridPruning ... 3 (G Style)
Weight generation scheme         WeightScheme... Becke
Basis function cutoff            BFCut       ...    1.0000e-10
Integration weight cutoff        WCut        ...    1.0000e-14
Grids for H and He will be reduced by one unit

# of grid points (after initial pruning)     ...   6040 (   0.0 sec)
# of grid points (after weights+screening)   ...   5647 (   0.0 sec)
nearest neighbour list constructed           ...    0.0 sec
Grid point re-assignment to atoms done       ...    0.0 sec
Grid point division into batches done        ...    0.0 sec
Reduced shell lists constructed in    0.0 sec

Total number of grid points                  ...     5647
Total number of batches                      ...       96
Average number of points per batch           ...       58
Average number of grid points per atom       ...      403
Average number of shells per batch           ...    45.84 (88.15%)
Average number of basis functions per batch  ...    90.88 (90.88%)
Average number of large shells per batch     ...    39.12 (85.34%)
Average number of large basis fcns per batch ...    79.20 (87.15%)
Maximum spatial batch extension              ...  13.42, 15.79, 12.71 au
Average spatial batch extension              ...   0.80,  0.85,  0.73 au

Overlap Fitting                  UseSFitting ... on
Constructing numerical overlap ... done (      0.0 sec)
Inverting numerical overlap    ... done (      0.0 sec)
Obtaining analytic overlap     ... done (      0.0 sec)
Final contraction and storage  ... done (      0.0 sec)


General Integration Accuracy     IntAcc      ...  3.670
Radial Grid Type                 RadialGrid  ... Gauss-Chebyshev
Angular Grid (max. acc.)         AngularGrid ... Lebedev-50
Angular grid pruning method      GridPruning ... 3 (G Style)
Weight generation scheme         WeightScheme... Becke
Basis function cutoff            BFCut       ...    1.0000e-10
Integration weight cutoff        WCut        ...    1.0000e-14
Grids for H and He will be reduced by one unit

# of grid points (after initial pruning)     ...   7748 (   0.0 sec)
# of grid points (after weights+screening)   ...   7229 (   0.0 sec)
nearest neighbour list constructed           ...    0.0 sec
Grid point re-assignment to atoms done       ...    0.0 sec
Grid point division into batches done        ...    0.0 sec
Reduced shell lists constructed in    0.0 sec

Total number of grid points                  ...     7229
Total number of batches                      ...      121
Average number of points per batch           ...       59
Average number of grid points per atom       ...      516
Average number of shells per batch           ...    45.34 (87.20%)
Average number of basis functions per batch  ...    90.09 (90.09%)
Average number of large shells per batch     ...    38.00 (83.80%)
Average number of large basis fcns per batch ...    76.50 (84.91%)
Maximum spatial batch extension              ...  14.45, 16.84, 11.99 au
Average spatial batch extension              ...   0.75,  0.77,  0.70 au

Overlap Fitting                  UseSFitting ... on
Constructing numerical overlap ... done (      0.0 sec)
Inverting numerical overlap    ... done (      0.0 sec)
Obtaining analytic overlap     ... done (      0.0 sec)
Final contraction and storage  ... done (      0.0 sec)


General Integration Accuracy     IntAcc      ...  4.010
Radial Grid Type                 RadialGrid  ... Gauss-Chebyshev
Angular Grid (max. acc.)         AngularGrid ... Lebedev-110
Angular grid pruning method      GridPruning ... 3 (G Style)
Weight generation scheme         WeightScheme... Becke
Basis function cutoff            BFCut       ...    1.0000e-10
Integration weight cutoff        WCut        ...    1.0000e-14
Grids for H and He will be reduced by one unit

# of grid points (after initial pruning)     ...  14106 (   0.0 sec)
# of grid points (after weights+screening)   ...  13160 (   0.0 sec)
nearest neighbour list constructed           ...    0.0 sec
Grid point re-assignment to atoms done       ...    0.0 sec
Grid point division into batches done        ...    0.0 sec
Reduced shell lists constructed in    0.0 sec

Total number of grid points                  ...    13160
Total number of batches                      ...      212
Average number of points per batch           ...       62
Average number of grid points per atom       ...      940
Average number of shells per batch           ...    44.91 (86.36%)
Average number of basis functions per batch  ...    89.94 (89.94%)
Average number of large shells per batch     ...    37.43 (83.34%)
Average number of large basis fcns per batch ...    75.43 (83.86%)
Maximum spatial batch extension              ...  14.81, 16.96, 12.53 au
Average spatial batch extension              ...   0.67,  0.67,  0.65 au

Overlap Fitting                  UseSFitting ... on
Constructing numerical overlap ... done (      0.0 sec)
Inverting numerical overlap    ... done (      0.0 sec)
Obtaining analytic overlap     ... done (      0.0 sec)
Final contraction and storage  ... done (      0.0 sec)

Time for X-Grid setup             =    0.183 sec
--------------
SCF ITERATIONS
--------------
ITER       Energy         Delta-E        Max-DP      RMS-DP      [F,P]     Damp
               ***  Starting incremental Fock matrix formation  ***
  0   -270.1248540471   0.000000000000 0.06922605  0.00304259  0.2068326 0.7000
  1   -270.1992172825  -0.074363235336 0.04367670  0.00219342  0.0807888 0.7000
                               ***Turning on DIIS***
  2   -270.2296676314  -0.030450348977 0.07294991  0.00358157  0.0322642 0.0000
  3   -270.2755229206  -0.045855289185 0.03170676  0.00158793  0.0445558 0.0000
  4   -270.2863371262  -0.010814205563 0.00974331  0.00047937  0.0087601 0.0000
  5   -270.2869807278  -0.000643601576 0.00390386  0.00015870  0.0064915 0.0000
                      *** Initiating the SOSCF procedure ***
                           *** Shutting down DIIS ***
                      *** Re-Reading the Fockian *** 
                      *** Removing any level shift *** 
ITER      Energy       Delta-E        Grad      Rot      Max-DP    RMS-DP
  6   -270.28704836  -0.0000676284  0.000264  0.000264  0.001523  0.000070
               *** Restarting incremental Fock matrix formation ***
  7   -270.28704080   0.0000075555  0.000244  0.001046  0.000981  0.000039
  8   -270.28703853   0.0000022731  0.000455  0.000719  0.000646  0.000025
  9   -270.28704200  -0.0000034741  0.000021  0.000100  0.000115  0.000004
                 **** Energy Check signals convergence ****
              ***Rediagonalizing the Fockian in SOSCF/NRSCF***

               *****************************************************
               *                     SUCCESS                       *
               *           SCF CONVERGED AFTER  10 CYCLES          *
               *****************************************************

Setting up the final grid:

General Integration Accuracy     IntAcc      ...  4.670
Radial Grid Type                 RadialGrid  ... Gauss-Chebyshev
Angular Grid (max. acc.)         AngularGrid ... Lebedev-302
Angular grid pruning method      GridPruning ... 3 (G Style)
Weight generation scheme         WeightScheme... Becke
Basis function cutoff            BFCut       ...    1.0000e-10
Integration weight cutoff        WCut        ...    1.0000e-14
Grids for H and He will be reduced by one unit

# of grid points (after initial pruning)     ...  64424 (   0.0 sec)
# of grid points (after weights+screening)   ...  59101 (   0.1 sec)
nearest neighbour list constructed           ...    0.0 sec
Grid point re-assignment to atoms done       ...    0.0 sec
Grid point division into batches done        ...    0.3 sec
Reduced shell lists constructed in    0.4 sec

Total number of grid points                  ...    59101
Total number of batches                      ...      932
Average number of points per batch           ...       63
Average number of grid points per atom       ...     4222
Average number of shells per batch           ...    43.24 (83.15%)
Average number of basis functions per batch  ...    86.85 (86.85%)
Average number of large shells per batch     ...    35.23 (81.48%)
Average number of large basis fcns per batch ...    70.68 (81.38%)
Maximum spatial batch extension              ...  18.60, 14.39, 14.20 au
Average spatial batch extension              ...   0.43,  0.41,  0.41 au

Final grid set up in    0.4 sec
Final integration                            ... done (   0.1 sec)
Change in XC energy                          ...     0.000105559
Integrated number of electrons               ...    46.000092396
Previous integrated no of electrons          ...    45.999807382
Old exchange energy                            =     -7.371705539 Eh
New exchange energy                            =     -7.371770922 Eh
Exchange energy change after final integration =     -0.000065383 Eh
Total energy after final integration           =   -270.287001804 Eh
Final COS-X integration done in                =     0.815 sec

----------------
TOTAL SCF ENERGY
----------------

Total Energy       :         -270.28700180 Eh           -7354.88323 eV

Components:
Nuclear Repulsion  :          229.24114273 Eh            6237.96863 eV
Electronic Energy  :         -499.52814453 Eh          -13592.85186 eV
One Electron Energy:         -819.82864275 Eh          -22308.67152 eV
Two Electron Energy:          320.30049821 Eh            8715.81966 eV

Virial components:
Potential Energy   :         -538.93813352 Eh          -14665.25218 eV
Kinetic Energy     :          268.65113171 Eh            7310.36895 eV
Virial Ratio       :            2.00608920


DFT components:
N(Alpha)           :       23.000046197808 electrons
N(Beta)            :       23.000046197808 electrons
N(Total)           :       46.000092395616 electrons
E(X)               :      -29.299327751063 Eh       
E(C)               :       -1.792140055853 Eh       
E(XC)              :      -31.091467806916 Eh       
DFET-embed. en.    :        0.000000000000 Eh       

---------------
SCF CONVERGENCE
---------------

  Last Energy change         ...    2.1534e-08  Tolerance :   1.0000e-06
  Last MAX-Density change    ...    2.6645e-15  Tolerance :   1.0000e-05
  Last RMS-Density change    ...    6.3038e-17  Tolerance :   1.0000e-06
  Last Orbital Gradient      ...    3.8108e-05  Tolerance :   5.0000e-05
  Last Orbital Rotation      ...    6.7472e-05  Tolerance :   5.0000e-05

             **** THE GBW FILE WAS UPDATED (claisen_ts_freq.gbw) ****
             **** DENSITY FILE WAS UPDATED (claisen_ts_freq.scfp) ****
             **** ENERGY FILE WAS UPDATED (claisen_ts_freq.en.tmp) ****
             **** THE GBW FILE WAS UPDATED (claisen_ts_freq.gbw) ****
             **** DENSITY FILE WAS UPDATED (claisen_ts_freq.scfp) ****
----------------
ORBITAL ENERGIES
----------------

  NO   OCC          E(Eh)            E(eV) 
   0   2.0000     -19.125886      -520.4418 
   1   2.0000     -10.220380      -278.1107 
   2   2.0000     -10.212591      -277.8987 
   3   2.0000     -10.201078      -277.5854 
   4   2.0000     -10.176308      -276.9114 
   5   2.0000     -10.175006      -276.8760 
   6   2.0000      -0.997450       -27.1420 
   7   2.0000      -0.793422       -21.5901 
   8   2.0000      -0.728170       -19.8145 
   9   2.0000      -0.670745       -18.2519 
  10   2.0000      -0.564576       -15.3629 
  11   2.0000      -0.550274       -14.9737 
  12   2.0000      -0.482483       -13.1290 
  13   2.0000      -0.455840       -12.4040 
  14   2.0000      -0.439139       -11.9496 
  15   2.0000      -0.427333       -11.6283 
  16   2.0000      -0.391268       -10.6469 
  17   2.0000      -0.382055       -10.3962 
  18   2.0000      -0.366966        -9.9857 
  19   2.0000      -0.362027        -9.8513 
  20   2.0000      -0.267850        -7.2886 
  21   2.0000      -0.248364        -6.7583 
  22   2.0000      -0.218672        -5.9504 
  23   0.0000      -0.025375        -0.6905 
  24   0.0000       0.014268         0.3883 
  25   0.0000       0.093956         2.5567 
  26   0.0000       0.111728         3.0403 
  27   0.0000       0.121893         3.3169 
  28   0.0000       0.138039         3.7562 
  29   0.0000       0.149460         4.0670 
  30   0.0000       0.171774         4.6742 
  31   0.0000       0.186839         5.0841 
  32   0.0000       0.191276         5.2049 
  33   0.0000       0.210197         5.7198 
  34   0.0000       0.302805         8.2397 
  35   0.0000       0.310303         8.4438 
  36   0.0000       0.342081         9.3085 
  37   0.0000       0.354395         9.6436 
  38   0.0000       0.496033        13.4977 
  39   0.0000       0.513975        13.9860 
  40   0.0000       0.527871        14.3641 
  41   0.0000       0.561184        15.2706 
  42   0.0000       0.574587        15.6353 
  43   0.0000       0.592849        16.1322 
  44   0.0000       0.604312        16.4442 
  45   0.0000       0.633421        17.2362 
  46   0.0000       0.645101        17.5541 
  47   0.0000       0.669494        18.2179 
  48   0.0000       0.676340        18.4041 
  49   0.0000       0.749321        20.3901 
  50   0.0000       0.780681        21.2434 
  51   0.0000       0.820525        22.3276 
  52   0.0000       0.833612        22.6837 
  53   0.0000       0.849823        23.1249 
  54   0.0000       0.860426        23.4134 
  55   0.0000       0.887841        24.1594 
  56   0.0000       0.892180        24.2775 
  57   0.0000       0.919595        25.0234 
  58   0.0000       0.946003        25.7421 
  59   0.0000       0.951923        25.9032 
  60   0.0000       1.003256        27.3000 
  61   0.0000       1.042598        28.3705 
  62   0.0000       1.096730        29.8435 
  63   0.0000       1.155827        31.4517 
  64   0.0000       1.191394        32.4195 
  65   0.0000       1.227588        33.4044 
  66   0.0000       1.278626        34.7932 
  67   0.0000       1.332784        36.2669 
  68   0.0000       1.399840        38.0916 
  69   0.0000       1.481140        40.3039 
  70   0.0000       1.532267        41.6951 
  71   0.0000       1.547464        42.1086 
  72   0.0000       1.588616        43.2284 
  73   0.0000       1.665752        45.3274 
  74   0.0000       1.705374        46.4056 
  75   0.0000       1.723320        46.8939 
  76   0.0000       1.769209        48.1426 
  77   0.0000       1.810646        49.2702 
  78   0.0000       1.873315        50.9755 
  79   0.0000       1.918373        52.2016 
  80   0.0000       1.998244        54.3750 
  81   0.0000       2.001733        54.4699 
  82   0.0000       2.019472        54.9526 
  83   0.0000       2.063668        56.1553 
  84   0.0000       2.079279        56.5801 
  85   0.0000       2.193751        59.6950 
  86   0.0000       2.220425        60.4208 
  87   0.0000       2.266093        61.6635 
  88   0.0000       2.267264        61.6954 
  89   0.0000       2.311445        62.8976 
  90   0.0000       2.351488        63.9872 
  91   0.0000       2.411271        65.6140 
  92   0.0000       2.513099        68.3849 
  93   0.0000       2.587352        70.4054 
  94   0.0000       2.629284        71.5464 
  95   0.0000       2.680410        72.9377 
  96   0.0000       2.776315        75.5474 
  97   0.0000       2.862091        77.8815 
  98   0.0000       2.875190        78.2379 
  99   0.0000       2.998036        81.5807 

                    ********************************
                    * MULLIKEN POPULATION ANALYSIS *
                    ********************************

-----------------------
MULLIKEN ATOMIC CHARGES
-----------------------
   0 C :   -0.352996
   1 C :    0.198844
   2 O :   -0.444807
   3 C :   -0.208965
   4 C :   -0.042405
   5 C :   -0.323250
   6 H :    0.139824
   7 H :    0.162226
   8 H :    0.087391
   9 H :    0.169111
  10 H :    0.164436
  11 H :    0.129947
  12 H :    0.158439
  13 H :    0.162204
Sum of atomic charges:    0.0000000

--------------------------------
MULLIKEN REDUCED ORBITAL CHARGES
--------------------------------
  0 C s       :     3.296881  s :     3.296881
      pz      :     1.035707  p :     3.026818
      px      :     0.982721
      py      :     1.008390
      dz2     :     0.008843  d :     0.029298
      dxz     :     0.003304
      dyz     :     0.006573
      dx2y2   :     0.004154
      dxy     :     0.006423
  1 C s       :     3.114112  s :     3.114112
      pz      :     0.915482  p :     2.611178
      px      :     0.840856
      py      :     0.854841
      dz2     :     0.017645  d :     0.075866
      dxz     :     0.012121
      dyz     :     0.014762
      dx2y2   :     0.015502
      dxy     :     0.015835
  2 O s       :     3.887366  s :     3.887366
      pz      :     1.717560  p :     4.532632
      px      :     1.245139
      py      :     1.569933
      dz2     :     0.003477  d :     0.024809
      dxz     :     0.003544
      dyz     :     0.005289
      dx2y2   :     0.006430
      dxy     :     0.006069
  3 C s       :     3.314964  s :     3.314964
      pz      :     1.026645  p :     2.857016
      px      :     0.814239
      py      :     1.016132
      dz2     :     0.011272  d :     0.036985
      dxz     :     0.002648
      dyz     :     0.008075
      dx2y2   :     0.006229
      dxy     :     0.008761
  4 C s       :     3.140713  s :     3.140713
      pz      :     0.959643  p :     2.866175
      px      :     1.009944
      py      :     0.896588
      dz2     :     0.010601  d :     0.035517
      dxz     :     0.003539
      dyz     :     0.008008
      dx2y2   :     0.006825
      dxy     :     0.006543
  5 C s       :     3.312426  s :     3.312426
      pz      :     1.028795  p :     2.978338
      px      :     0.922411
      py      :     1.027133
      dz2     :     0.011052  d :     0.032486
      dxz     :     0.002704
      dyz     :     0.006448
      dx2y2   :     0.008569
      dxy     :     0.003712
  6 H s       :     0.860176  s :     0.860176
  7 H s       :     0.837774  s :     0.837774
  8 H s       :     0.912609  s :     0.912609
  9 H s       :     0.830889  s :     0.830889
 10 H s       :     0.835564  s :     0.835564
 11 H s       :     0.870053  s :     0.870053
 12 H s       :     0.841561  s :     0.841561
 13 H s       :     0.837796  s :     0.837796


                     *******************************
                     * LOEWDIN POPULATION ANALYSIS *
                     *******************************

----------------------
LOEWDIN ATOMIC CHARGES
----------------------
   0 C :   -0.284060
   1 C :   -0.027371
   2 O :   -0.238644
   3 C :   -0.114511
   4 C :   -0.186415
   5 C :   -0.196320
   6 H :    0.131124
   7 H :    0.139935
   8 H :    0.090144
   9 H :    0.143679
  10 H :    0.137602
  11 H :    0.130040
  12 H :    0.138056
  13 H :    0.136741

-------------------------------
LOEWDIN REDUCED ORBITAL CHARGES
-------------------------------
  0 C s       :     3.015611  s :     3.015611
      pz      :     1.104965  p :     3.206845
      px      :     1.018561
      py      :     1.083319
      dz2     :     0.017525  d :     0.061605
      dxz     :     0.005498
      dyz     :     0.016050
      dx2y2   :     0.009997
      dxy     :     0.012536
  1 C s       :     2.916306  s :     2.916306
      pz      :     1.023999  p :     2.933542
      px      :     0.911296
      py      :     0.998247
      dz2     :     0.039173  d :     0.177522
      dxz     :     0.027718
      dyz     :     0.035313
      dx2y2   :     0.037816
      dxy     :     0.037502
  2 O s       :     3.578448  s :     3.578448
      pz      :     1.734076  p :     4.606241
      px      :     1.277461
      py      :     1.594704
      dz2     :     0.007408  d :     0.053955
      dxz     :     0.008582
      dyz     :     0.009791
      dx2y2   :     0.014333
      dxy     :     0.013841
  3 C s       :     3.004531  s :     3.004531
      pz      :     1.099655  p :     3.034038
      px      :     0.841099
      py      :     1.093284
      dz2     :     0.022118  d :     0.075942
      dxz     :     0.004577
      dyz     :     0.018077
      dx2y2   :     0.014118
      dxy     :     0.017052
  4 C s       :     2.919272  s :     2.919272
      pz      :     1.075859  p :     3.181089
      px      :     1.046541
      py      :     1.058689
      dz2     :     0.022764  d :     0.086054
      dxz     :     0.007524
      dyz     :     0.021916
      dx2y2   :     0.017333
      dxy     :     0.016517
  5 C s       :     3.003348  s :     3.003348
      pz      :     1.098081  p :     3.126676
      px      :     0.943023
      py      :     1.085571
      dz2     :     0.021664  d :     0.066297
      dxz     :     0.005845
      dyz     :     0.014357
      dx2y2   :     0.016167
      dxy     :     0.008264
  6 H s       :     0.868876  s :     0.868876
  7 H s       :     0.860065  s :     0.860065
  8 H s       :     0.909856  s :     0.909856
  9 H s       :     0.856321  s :     0.856321
 10 H s       :     0.862398  s :     0.862398
 11 H s       :     0.869960  s :     0.869960
 12 H s       :     0.861944  s :     0.861944
 13 H s       :     0.863259  s :     0.863259


                      *****************************
                      * MAYER POPULATION ANALYSIS *
                      *****************************

  NA   - Mulliken gross atomic population
  ZA   - Total nuclear charge
  QA   - Mulliken gross atomic charge
  VA   - Mayer's total valence
  BVA  - Mayer's bonded valence
  FA   - Mayer's free valence

  ATOM       NA         ZA         QA         VA         BVA        FA
  0 C      6.3530     6.0000    -0.3530     3.8074     3.8074    -0.0000
  1 C      5.8012     6.0000     0.1988     3.9114     3.9114     0.0000
  2 O      8.4448     8.0000    -0.4448     2.0086     2.0086     0.0000
  3 C      6.2090     6.0000    -0.2090     3.8529     3.8529     0.0000
  4 C      6.0424     6.0000    -0.0424     3.8819     3.8819    -0.0000
  5 C      6.3232     6.0000    -0.3232     3.8790     3.8790     0.0000
  6 H      0.8602     1.0000     0.1398     0.9407     0.9407    -0.0000
  7 H      0.8378     1.0000     0.1622     0.9401     0.9401    -0.0000
  8 H      0.9126     1.0000     0.0874     0.9348     0.9348    -0.0000
  9 H      0.8309     1.0000     0.1691     0.9341     0.9341     0.0000
 10 H      0.8356     1.0000     0.1644     0.9299     0.9299     0.0000
 11 H      0.8701     1.0000     0.1299     0.9388     0.9388    -0.0000
 12 H      0.8416     1.0000     0.1584     0.9353     0.9353     0.0000
 13 H      0.8378     1.0000     0.1622     0.9355     0.9355     0.0000

  Mayer bond orders larger than 0.100000
B(  0-C ,  1-C ) :   1.4866 B(  0-C ,  3-C ) :   0.1150 B(  0-C ,  5-C ) :   0.3431 
B(  0-C ,  6-H ) :   0.9301 B(  0-C ,  7-H ) :   0.9328 B(  1-C ,  2-O ) :   1.4141 
B(  1-C ,  8-H ) :   0.9150 B(  2-O ,  3-C ) :   0.4467 B(  3-C ,  4-C ) :   1.3837 
B(  3-C ,  9-H ) :   0.9367 B(  3-C , 10-H ) :   0.9329 B(  4-C ,  5-C ) :   1.5285 
B(  4-C , 11-H ) :   0.9361 B(  5-C , 12-H ) :   0.9348 B(  5-C , 13-H ) :   0.9342 


-------
TIMINGS
-------

Total SCF time: 0 days 0 hours 0 min 7 sec 

Total time                  ....       7.867 sec
Sum of individual times     ....       7.751 sec  ( 98.5%)

Fock matrix formation       ....       6.929 sec  ( 88.1%)
  Split-RI-J                ....       1.438 sec  ( 20.8% of F)
  Chain of spheres X        ....       4.948 sec  ( 71.4% of F)
  COS-X 1 center corr.      ....       0.000 sec  (  0.0% of F)
  XC integration            ....       0.515 sec  (  7.4% of F)
    Basis function eval.    ....       0.200 sec  ( 38.9% of XC)
    Density eval.           ....       0.093 sec  ( 18.1% of XC)
    XC-Functional eval.     ....       0.044 sec  (  8.5% of XC)
    XC-Potential eval.      ....       0.126 sec  ( 24.4% of XC)
Diagonalization             ....       0.011 sec  (  0.1%)
Density matrix formation    ....       0.001 sec  (  0.0%)
Population analysis         ....       0.010 sec  (  0.1%)
Initial guess               ....       0.120 sec  (  1.5%)
Orbital Transformation      ....       0.000 sec  (  0.0%)
Orbital Orthonormalization  ....       0.000 sec  (  0.0%)
DIIS solution               ....       0.011 sec  (  0.1%)
SOSCF solution              ....       0.006 sec  (  0.1%)
Grid generation             ....       0.662 sec  (  8.4%)

-------------------------   --------------------
FINAL SINGLE POINT ENERGY      -270.287001804044
-------------------------   --------------------


                            ***************************************
                            *     ORCA property calculations      *
                            ***************************************

                                    ---------------------
                                    Active property flags
                                    ---------------------
   (+) Dipole Moment


------------------------------------------------------------------------------
                       ORCA ELECTRIC PROPERTIES CALCULATION
------------------------------------------------------------------------------

Dipole Moment Calculation                       ... on
Quadrupole Moment Calculation                   ... off
Polarizability Calculation                      ... off
GBWName                                         ... claisen_ts_freq.gbw
Electron density file                           ... claisen_ts_freq.scfp
The origin for moment calculation is the CENTER OF MASS  = (-0.014425, -0.075402 -0.023092)

-------------
DIPOLE MOMENT
-------------
                                X             Y             Z
Electronic contribution:     -0.37298      -2.74404      -0.68829
Nuclear contribution   :      0.66676       3.44270       1.00351
                        -----------------------------------------
Total Dipole Moment    :      0.29378       0.69865       0.31522
                        -----------------------------------------
Magnitude (a.u.)       :      0.82084
Magnitude (Debye)      :      2.08641



--------------------
Rotational spectrum 
--------------------
 
Rotational constants in cm-1:     0.160043     0.128504     0.081068 
Rotational constants in MHz :  4797.970645  3852.460817  2430.356824 

 Dipole components along the rotational axes: 
x,y,z [a.u.] :     0.419439    -0.640276     0.296478 
x,y,z [Debye]:     1.066129    -1.627452     0.753588 

 


           ************************************************************
           *        Program running with 4 parallel MPI-processes     *
           *              working on a common directory               *
           ************************************************************

-------------------------------------------------------------------------------
                               ORCA SCF HESSIAN
-------------------------------------------------------------------------------

Hessian of the Kohn-Sham DFT energy:
Kohn-Sham wavefunction type                      ... RKS
Hartree-Fock exchange scaling                    ...    0.200
Number of operators                              ...    1
Number of atoms                                  ...   14
Basis set dimensions                             ...  100
Integral neglect threshold                       ... 1.0e-10
Integral primitive cutoff                        ... 1.0e-11

Setting up DFT Hessian calculations              ... 
Electron density on the grid                     ... found on disk
Electron density on the final grid               ... found on disk
Building xc-kernel on the grid                   ... done   (      0.0 sec)
Building xc-kernel on the final grid             ... done   (      0.0 sec)
                                                     done   (      0.1 sec)

Nuclear repulsion Hessian                        ... done   (      0.0 sec)

----------------------------------------------
Forming right-hand sides of CP-SCF equations     ...
----------------------------------------------
One electron integral derivatives                ... done   (      0.1 sec)
Transforming the overlap derivative matrices     ... done   (      0.0 sec)
Making the Q(x) pseudodensities                  ... done   (      0.0 sec)
Adding the E*S(x)*S(y) terms to the Hessian      ... done   (      0.0 sec)
Calculating energy weighted overlap derivatives  ... done   (      0.0 sec)
Two electron integral derivatives (RI)           ... done   (      2.2 sec)
Exchange-correlation integral derivatives        ... done   (      6.2 sec)
tr(F(y)Q(x)) contribution to the Hessian         ... done   (      0.0 sec)
Response fock operator R(S(x)) (RIJCOSX)         ... done   (      3.2 sec)
XC Response fock operator R(S(x))                ... done   (      2.6 sec)
tr(F(y)S(x)) contribution to the Hessian         ... done   (      0.0 sec)
Transforming and finalizing RHSs                 ... done   (      0.0 sec)

----------------------------------------------
Solving the CP-SCF equations (RIJCOSX)           ...
----------------------------------------------
     CP-SCF ITERATION   0: 
     CP-SCF ITERATION   1:      0.007757647060
     CP-SCF ITERATION   2:      0.001160844238
     CP-SCF ITERATION   3:      0.000129951161
     CP-SCF ITERATION   4:      0.000024024537
     CP-SCF ITERATION   5:      0.000001213277
     CP-SCF ITERATION   6:      0.000000997313

                                                 ... done   (     16.6 sec)
Forming perturbed density Hessian contributions  ... done   (      0.0 sec)
2nd integral derivative contribs (RI)            ... done   (     12.9 sec)
Exchange-correlation Hessian                     ... done   (      8.3 sec)
Dipol derivatives                                ... done   (      0.4 sec)

Total SCF Hessian time: 0 days 0 hours 0 min 52 sec 

Writing the Hessian file to the disk             ... done


Maximum memory used throughout the entire calculation: 136.8 MB

-----------------------
VIBRATIONAL FREQUENCIES
-----------------------

Scaling factor for frequencies =  1.000000000  (already applied!)

   0:         0.00 cm**-1
   1:         0.00 cm**-1
   2:         0.00 cm**-1
   3:         0.00 cm**-1
   4:         0.00 cm**-1
   5:         0.00 cm**-1
   6:      -480.16 cm**-1 ***imaginary mode***
   7:       168.46 cm**-1
   8:       265.29 cm**-1
   9:       309.87 cm**-1
  10:       377.47 cm**-1
  11:       423.98 cm**-1
  12:       461.15 cm**-1
  13:       527.42 cm**-1
  14:       736.41 cm**-1
  15:       805.33 cm**-1
  16:       874.32 cm**-1
  17:       891.39 cm**-1
  18:       961.00 cm**-1
  19:       996.67 cm**-1
  20:      1001.60 cm**-1
  21:      1009.65 cm**-1
  22:      1036.18 cm**-1
  23:      1055.42 cm**-1
  24:      1086.54 cm**-1
  25:      1266.41 cm**-1
  26:      1273.76 cm**-1
  27:      1301.54 cm**-1
  28:      1361.25 cm**-1
  29:      1451.34 cm**-1
  30:      1491.42 cm**-1
  31:      1549.86 cm**-1
  32:      1563.32 cm**-1
  33:      1637.00 cm**-1
  34:      2988.72 cm**-1
  35:      3165.77 cm**-1
  36:      3167.28 cm**-1
  37:      3173.77 cm**-1
  38:      3177.38 cm**-1
  39:      3250.59 cm**-1
  40:      3263.56 cm**-1
  41:      3263.98 cm**-1


------------
NORMAL MODES
------------

These modes are the Cartesian displacements weighted by the diagonal matrix
M(i,i)=1/sqrt(m[i]) where m[i] is the mass of the displaced atom
Thus, these vectors are normalized but *not* orthogonal

                  0          1          2          3          4          5    
      0       0.000000   0.000000   0.000000   0.000000   0.000000   0.000000
      1       0.000000   0.000000   0.000000   0.000000   0.000000   0.000000
      2       0.000000   0.000000   0.000000   0.000000   0.000000   0.000000
      3       0.000000   0.000000   0.000000   0.000000   0.000000   0.000000
      4       0.000000   0.000000   0.000000   0.000000   0.000000   0.000000
      5       0.000000   0.000000   0.000000   0.000000   0.000000   0.000000
      6       0.000000   0.000000   0.000000   0.000000   0.000000   0.000000
      7       0.000000   0.000000   0.000000   0.000000   0.000000   0.000000
      8       0.000000   0.000000   0.000000   0.000000   0.000000   0.000000
      9       0.000000   0.000000   0.000000   0.000000   0.000000   0.000000
     10       0.000000   0.000000   0.000000   0.000000   0.000000   0.000000
     11       0.000000   0.000000   0.000000   0.000000   0.000000   0.000000
     12       0.000000   0.000000   0.000000   0.000000   0.000000   0.000000
     13       0.000000   0.000000   0.000000   0.000000   0.000000   0.000000
     14       0.000000   0.000000   0.000000   0.000000   0.000000   0.000000
     15       0.000000   0.000000   0.000000   0.000000   0.000000   0.000000
     16       0.000000   0.000000   0.000000   0.000000   0.000000   0.000000
     17       0.000000   0.000000   0.000000   0.000000   0.000000   0.000000
     18       0.000000   0.000000   0.000000   0.000000   0.000000   0.000000
     19       0.000000   0.000000   0.000000   0.000000   0.000000   0.000000
     20       0.000000   0.000000   0.000000   0.000000   0.000000   0.000000
     21       0.000000   0.000000   0.000000   0.000000   0.000000   0.000000
     22       0.000000   0.000000   0.000000   0.000000   0.000000   0.000000
     23       0.000000   0.000000   0.000000   0.000000   0.000000   0.000000
     24       0.000000   0.000000   0.000000   0.000000   0.000000   0.000000
     25       0.000000   0.000000   0.000000   0.000000   0.000000   0.000000
     26       0.000000   0.000000   0.000000   0.000000   0.000000   0.000000
     27       0.000000   0.000000   0.000000   0.000000   0.000000   0.000000
     28       0.000000   0.000000   0.000000   0.000000   0.000000   0.000000
     29       0.000000   0.000000   0.000000   0.000000   0.000000   0.000000
     30       0.000000   0.000000   0.000000   0.000000   0.000000   0.000000
     31       0.000000   0.000000   0.000000   0.000000   0.000000   0.000000
     32       0.000000   0.000000   0.000000   0.000000   0.000000   0.000000
     33       0.000000   0.000000   0.000000   0.000000   0.000000   0.000000
     34       0.000000   0.000000   0.000000   0.000000   0.000000   0.000000
     35       0.000000   0.000000   0.000000   0.000000   0.000000   0.000000
     36       0.000000   0.000000   0.000000   0.000000   0.000000   0.000000
     37       0.000000   0.000000   0.000000   0.000000   0.000000   0.000000
     38       0.000000   0.000000   0.000000   0.000000   0.000000   0.000000
     39       0.000000   0.000000   0.000000   0.000000   0.000000   0.000000
     40       0.000000   0.000000   0.000000   0.000000   0.000000   0.000000
     41       0.000000   0.000000   0.000000   0.000000   0.000000   0.000000
                  6          7          8          9         10         11    
      0      -0.332529   0.053352   0.335316  -0.222847   0.028308  -0.037604
      1      -0.168412  -0.014747   0.082702   0.014117  -0.068703   0.062862
      2      -0.066635  -0.183888   0.050466  -0.089489  -0.017325   0.079974
      3       0.005341  -0.028774   0.173537   0.118611   0.063768  -0.131065
      4       0.069901   0.059028   0.056489   0.142114  -0.007747  -0.026046
      5       0.010065   0.011845   0.028224   0.077546   0.092116  -0.063437
      6       0.341734  -0.028779   0.236476   0.031949  -0.101186   0.070672
      7       0.080251  -0.055102   0.069315   0.148805  -0.070487   0.046608
      8       0.054233   0.203781   0.023961  -0.034529  -0.047305   0.105186
      9      -0.460060   0.036454  -0.309783   0.135942  -0.082383   0.042624
     10      -0.127193  -0.001882  -0.090614  -0.089919  -0.032071  -0.066586
     11      -0.072946  -0.187738  -0.054934   0.008942  -0.088017  -0.076932
     12      -0.014319  -0.016369  -0.156918   0.051831   0.091218   0.139862
     13       0.053922   0.068708  -0.036062  -0.075334   0.059548  -0.000331
     14      -0.000938  -0.017395   0.016130   0.046038   0.147888   0.079760
     15       0.369438  -0.016584  -0.341815  -0.117162  -0.005541  -0.079252
     16       0.084850  -0.044526  -0.099005  -0.156032   0.125555  -0.020425
     17       0.062085   0.159666  -0.067530  -0.003986  -0.049644  -0.114489
     18      -0.345682   0.016443   0.359907  -0.177900   0.139486  -0.124561
     19      -0.184504   0.071591   0.120569   0.020786   0.039736  -0.046926
     20      -0.072126  -0.363660   0.034407  -0.034979  -0.021849   0.122356
     21       0.076508   0.219162   0.196060  -0.401274  -0.101167   0.043097
     22       0.054772  -0.145037   0.005275  -0.099166  -0.254689   0.260483
     23       0.071088  -0.169461   0.004803  -0.153507  -0.081320   0.136963
     24       0.029545  -0.137544   0.271032   0.467550   0.325197  -0.496385
     25      -0.065228   0.215104   0.080068   0.293014   0.105776  -0.198638
     26      -0.031782  -0.002795   0.061460   0.245278   0.215620  -0.238146
     27      -0.294255  -0.047455  -0.184110   0.119496  -0.022753   0.009903
     28      -0.065354   0.078524  -0.034261  -0.062356   0.082800   0.016093
     29      -0.027207  -0.386591  -0.033728  -0.051860  -0.211436  -0.239273
     30       0.036380   0.244886  -0.108286   0.105158  -0.175203   0.111825
     31      -0.006827  -0.149339  -0.092263  -0.171819  -0.271053  -0.260499
     32       0.010907  -0.190429  -0.026736  -0.007533  -0.139244  -0.103438
     33       0.027959  -0.082267  -0.179837   0.126408   0.396062   0.346474
     34       0.008389   0.228573  -0.041959  -0.029071   0.144668   0.046375
     35       0.007275  -0.016877   0.007708   0.076922   0.254177   0.149125
     36       0.240434  -0.042490  -0.296934  -0.139544   0.153762  -0.013271
     37       0.066334   0.034336  -0.090005  -0.142344   0.076884  -0.063672
     38       0.033063   0.342449  -0.059343   0.033310  -0.181759  -0.221572
     39      -0.045797  -0.048521  -0.240504  -0.206314  -0.245751  -0.219080
     40      -0.045452  -0.252534  -0.017015  -0.204138   0.282116   0.109074
     41      -0.037338   0.144728  -0.039490  -0.024913  -0.096415  -0.142057
                 12         13         14         15         16         17    
      0      -0.006407  -0.065808  -0.016182  -0.005839   0.055971   0.024814
      1       0.019464   0.112454  -0.009730   0.031419   0.026592   0.016614
      2      -0.019515  -0.001566  -0.014033   0.035623   0.015775  -0.015764
      3       0.024344   0.123050   0.011528   0.097651   0.006118  -0.047760
      4       0.014157   0.056175   0.008260   0.048975  -0.028446  -0.040704
      5      -0.029097  -0.152789  -0.016828   0.031303  -0.020110  -0.025312
      6       0.023942  -0.001273  -0.020282  -0.031960  -0.004879   0.034705
      7       0.003987  -0.195328  -0.019669  -0.032296   0.013934   0.039094
      8      -0.008092   0.076335  -0.007737  -0.009460   0.003493   0.040741
      9       0.099706  -0.024619  -0.044309  -0.006665  -0.022553   0.000396
     10      -0.107320   0.004637   0.025863  -0.011014   0.024392  -0.005956
     11       0.004793   0.001524   0.000181  -0.028884   0.035567  -0.074065
     12      -0.178244  -0.017206   0.151352   0.002284   0.047550  -0.003728
     13      -0.060799   0.009490   0.042464  -0.006111  -0.001967  -0.026237
     14       0.092869  -0.001041   0.047557  -0.010792   0.010541   0.003510
     15       0.026046  -0.004363  -0.005352  -0.020928  -0.028998  -0.015993
     16       0.124416   0.011060  -0.035660  -0.007219   0.017698  -0.011816
     17       0.016972   0.005665   0.024258   0.004265  -0.028509   0.052414
     18      -0.073291   0.010235   0.035099  -0.635674  -0.420727  -0.054326
     19      -0.032073  -0.141189  -0.001063  -0.301516  -0.329677  -0.075920
     20      -0.038399   0.480074   0.043111  -0.363073  -0.124210   0.015309
     21       0.037752  -0.379318  -0.015818   0.402849  -0.368506  -0.452166
     22       0.067634   0.580895   0.029659   0.089829  -0.134924  -0.160209
     23      -0.001466   0.008295  -0.008626   0.142760  -0.116028  -0.164193
     24      -0.011277   0.229874   0.038680  -0.100556   0.058847   0.039929
     25       0.009692   0.269744   0.043086  -0.051059  -0.009596   0.034221
     26      -0.045017  -0.064817  -0.000214  -0.065965   0.009488   0.028723
     27       0.050345   0.052741  -0.309165   0.143844  -0.388658   0.233630
     28       0.061482   0.015315  -0.061576  -0.024000  -0.027899  -0.055867
     29      -0.298230   0.055829  -0.099245   0.123692  -0.205706   0.207421
     30       0.309447  -0.064292   0.082245  -0.229213   0.198985  -0.451200
     31      -0.368406   0.032873   0.015915   0.037509  -0.074711   0.099576
     32      -0.012612   0.001256   0.016908  -0.048300   0.047043  -0.113856
     33      -0.464443   0.076793  -0.427051   0.097458  -0.129759   0.047124
     34      -0.138026   0.038962  -0.091984   0.038549  -0.143923   0.107017
     35      -0.011595   0.033933  -0.158659   0.025361  -0.067165   0.038418
     36       0.064315   0.044774  -0.584210  -0.085250   0.354172   0.153539
     37      -0.014954   0.034046  -0.191533  -0.045560   0.156674  -0.079862
     38      -0.305305   0.053580  -0.276188  -0.078286   0.250014  -0.123817
     39       0.118895  -0.082308   0.345875   0.121388   0.080933   0.436315
     40       0.471495  -0.039838   0.197939   0.100972  -0.113108   0.321987
     41       0.054382  -0.013753   0.115560   0.038424  -0.006918   0.170950
                 18         19         20         21         22         23    
      0      -0.004026   0.054100   0.086818   0.009738  -0.050350  -0.031793
      1       0.001152   0.039121  -0.079656   0.094456   0.068335   0.009424
      2      -0.004820   0.048149  -0.040904   0.051070   0.023005  -0.004633
      3      -0.003862  -0.119577   0.067253  -0.001662   0.067690   0.013571
      4      -0.000648  -0.044074   0.033936   0.029057   0.024041  -0.016714
      5      -0.000096  -0.066497   0.029316   0.002306   0.004627  -0.004936
      6       0.007386   0.018417  -0.042796   0.017979   0.020228   0.018385
      7       0.001441   0.001443   0.066102  -0.056228  -0.055877  -0.001855
      8       0.007548   0.004634   0.007436  -0.010198  -0.013005   0.008431
      9      -0.021957   0.009102   0.013447  -0.009057  -0.009634   0.073469
     10       0.010335  -0.005864   0.001637  -0.062788   0.062320  -0.129361
     11       0.043929   0.019381   0.008478  -0.019268   0.034185  -0.008237
     12      -0.013911  -0.045997  -0.053085   0.032398  -0.060206   0.005484
     13       0.002402  -0.008427  -0.017153   0.015877  -0.018775   0.008253
     14      -0.004272  -0.034187  -0.027161   0.011593  -0.027239  -0.037012
     15       0.010061   0.061552   0.069311   0.044366   0.002738  -0.053690
     16       0.032495   0.004619   0.017855   0.044052  -0.051273   0.143538
     17      -0.046423   0.026558   0.032439   0.002349   0.023540   0.000647
     18       0.025362  -0.250355  -0.036918  -0.095525   0.074453   0.090919
     19       0.022730  -0.095463  -0.421551   0.181004   0.316697   0.137233
     20       0.004663  -0.173507   0.284453  -0.215980  -0.166440  -0.020434
     21      -0.030973   0.012459  -0.365530  -0.349845  -0.147825   0.078361
     22      -0.018834  -0.054328   0.088746  -0.423084  -0.331491  -0.005608
     23      -0.015713   0.017457  -0.110389  -0.133573  -0.077812   0.017496
     24      -0.018250   0.517112  -0.404556  -0.138041  -0.200388   0.016597
     25       0.006718   0.290673  -0.069341  -0.187692  -0.280340  -0.050692
     26      -0.004240   0.251249  -0.170290  -0.097246  -0.163958  -0.009233
     27       0.246655  -0.072155  -0.144887   0.330722  -0.326805  -0.472439
     28       0.311761  -0.003254  -0.058999  -0.006563   0.041849  -0.567805
     29      -0.180906  -0.056919  -0.036888   0.187547  -0.205647   0.163631
     30      -0.210925   0.192732  -0.078190   0.011862   0.196311  -0.198124
     31      -0.451562   0.015737  -0.024746   0.042873  -0.005423   0.073672
     32      -0.057151   0.045949  -0.009094   0.003429   0.045657  -0.000423
     33       0.174350   0.355997   0.200049  -0.292392   0.447095   0.175087
     34      -0.292998   0.110755   0.070613  -0.034543   0.119612   0.051244
     35       0.015393   0.113828   0.069418  -0.101952   0.160163   0.015860
     36      -0.323351  -0.429189  -0.415601  -0.287650   0.005161  -0.253574
     37       0.136139  -0.106487  -0.074976   0.047826  -0.133274   0.270574
     38       0.224982  -0.173362  -0.124631   0.045230  -0.158147   0.290016
     39       0.421387  -0.132528  -0.264536  -0.367522   0.223881   0.187462
     40      -0.281806  -0.006262  -0.042015  -0.165026   0.150607  -0.059580
     41       0.032369  -0.019654  -0.046433  -0.098147   0.080079   0.054765
                 24         25         26         27         28         29    
      0       0.020952  -0.007901   0.023484   0.017877   0.010409  -0.017648
      1      -0.022916   0.068155   0.093327   0.035556  -0.010530  -0.008173
      2      -0.020889  -0.076200  -0.109028  -0.031390   0.023371   0.019482
      3      -0.014609   0.006263  -0.057308  -0.026308  -0.076974   0.032309
      4       0.029255  -0.089606  -0.071179  -0.015830   0.062596  -0.048028
      5       0.025353   0.082065   0.174439   0.064968   0.087958  -0.004877
      6      -0.027426   0.007930   0.039389   0.019249   0.083419   0.005360
      7      -0.004291   0.005694  -0.046197  -0.023179  -0.086584   0.012891
      8      -0.027908   0.000512  -0.049236  -0.020350  -0.088028  -0.004049
      9      -0.056757  -0.009955  -0.015272   0.031857   0.037251  -0.020317
     10      -0.084205   0.071860  -0.051041   0.013624   0.021430   0.002583
     11      -0.006218  -0.098683   0.097813  -0.026711  -0.023155   0.028199
     12       0.015939  -0.004999   0.044285  -0.086201  -0.013237   0.040967
     13       0.021778  -0.109489   0.064392   0.023570   0.015391  -0.142110
     14       0.000422   0.066339  -0.127189   0.159594   0.016277  -0.013186
     15      -0.044779   0.007364  -0.010824   0.067579  -0.015923   0.009688
     16       0.023270   0.043102  -0.014214  -0.047714  -0.006126   0.012457
     17      -0.014050   0.027763   0.045350  -0.134954   0.012367  -0.027544
     18       0.003199  -0.029370  -0.073681  -0.056692  -0.027351   0.007682
     19      -0.114562   0.093844   0.067303   0.005660  -0.017327   0.114006
     20       0.088687  -0.112371  -0.153832  -0.073014  -0.006968  -0.115174
     21      -0.088380  -0.071193  -0.210181  -0.087613  -0.077912  -0.026925
     22       0.057955   0.380958   0.580941   0.202469  -0.021479   0.050549
     23      -0.029492  -0.044443  -0.087988  -0.031517   0.002434   0.024357
     24      -0.105641   0.093272  -0.028106  -0.012928  -0.469765  -0.166054
     25       0.027036  -0.295028  -0.208785  -0.058852   0.750926   0.303355
     26      -0.019245   0.082394   0.159957   0.061165   0.064042  -0.004369
     27       0.356677  -0.002801   0.016458  -0.134507  -0.117075   0.040858
     28       0.019096   0.048733   0.015102  -0.080509  -0.067994   0.277635
     29       0.188149  -0.034943   0.003396  -0.013267  -0.019542  -0.311451
     30       0.689405   0.103946  -0.049714  -0.104297  -0.072403  -0.086727
     31       0.238729   0.435412  -0.462304   0.201785   0.088915   0.236749
     32       0.147677  -0.034610   0.033576  -0.013103  -0.028845   0.045541
     33       0.204333   0.157099  -0.031401  -0.218866   0.085862  -0.120374
     34       0.117495  -0.622053   0.316536   0.553974  -0.339641   0.456633
     35       0.069547   0.051559  -0.123790   0.202727   0.001346   0.017118
     36      -0.044656  -0.164978   0.054245  -0.059376   0.053052  -0.195279
     37       0.077072   0.050956  -0.046465  -0.045162  -0.020013   0.207610
     38       0.097693   0.060846  -0.051478  -0.069471  -0.023101   0.398990
     39       0.364735  -0.101868  -0.116516   0.311522  -0.001689  -0.074455
     40       0.036333   0.007198   0.217286  -0.521177   0.014719   0.332668
     41       0.083231   0.008146   0.031890  -0.115936   0.015850  -0.015450
                 30         31         32         33         34         35    
      0      -0.000026   0.022075   0.039513   0.032091  -0.002449  -0.029812
      1       0.066874  -0.056010  -0.103899  -0.139085  -0.000524   0.052426
      2      -0.064931   0.024266   0.045168   0.042755   0.003016  -0.013006
      3      -0.090297  -0.015289  -0.046183  -0.109519   0.026839  -0.000790
      4       0.094504   0.054719   0.118802   0.229482   0.022485  -0.005984
      5       0.050289  -0.013732  -0.022601   0.000919  -0.075698   0.005610
      6       0.038662  -0.004524  -0.000132   0.050144   0.002077   0.000219
      7      -0.053132  -0.004855  -0.021005  -0.064958  -0.002324   0.000018
      8      -0.021489   0.003819   0.000557  -0.023357  -0.000900  -0.000302
      9       0.023465   0.022829   0.030193   0.001173  -0.000998  -0.000408
     10      -0.009089  -0.124575   0.014290   0.129783  -0.000262  -0.001086
     11       0.012963   0.053973  -0.017191  -0.022267  -0.000081   0.002937
     12       0.002782   0.010835  -0.045864   0.079273  -0.000190   0.004377
     13      -0.023224   0.068016   0.070973  -0.256172   0.000024   0.004284
     14       0.000408  -0.029210   0.038315  -0.030837   0.000115  -0.015250
     15      -0.000534  -0.027219   0.043291  -0.084064  -0.000353   0.006513
     16      -0.019340   0.019404  -0.110195   0.150598  -0.000148  -0.022792
     17      -0.014975   0.029816  -0.065033   0.065993   0.000097  -0.010299
     18      -0.033155   0.020705   0.025935   0.046160   0.039602   0.463606
     19      -0.379788   0.081674   0.118191   0.028922  -0.035563  -0.483365
     20       0.524416  -0.183505  -0.309391  -0.214953  -0.032188  -0.340423
     21       0.279993  -0.141387  -0.236645  -0.167648  -0.000791  -0.118401
     22      -0.351737   0.165110   0.277554   0.249167   0.002773  -0.077937
     23      -0.064027   0.028918   0.056319   0.085829   0.001523   0.468275
     24       0.168518   0.077498   0.164635   0.201951  -0.351850   0.013366
     25      -0.335748  -0.137555  -0.251861  -0.333565  -0.190767   0.011998
     26       0.054592  -0.026848  -0.042127  -0.034865   0.910445  -0.036621
     27      -0.029997   0.032350  -0.043272  -0.034475   0.001356   0.000120
     28       0.104432   0.272370  -0.114569   0.006033  -0.000978  -0.000493
     29      -0.196175  -0.535220   0.109859   0.155308   0.000369   0.000526
     30      -0.132261  -0.268764  -0.010932   0.071708   0.003700   0.004007
     31       0.175549   0.531203  -0.060382  -0.254598   0.000351   0.004751
     32       0.016826   0.121270  -0.034777  -0.086688  -0.000346  -0.032476
     33      -0.011061   0.043681   0.026150  -0.084021  -0.000336  -0.061280
     34       0.035398  -0.116927  -0.163849   0.344206  -0.000052  -0.027091
     35       0.004085  -0.053390   0.039494  -0.005371   0.000277   0.190313
     36      -0.068019   0.115019  -0.126703   0.069644   0.000319  -0.011490
     37       0.076779  -0.087212   0.124735   0.015866   0.002377   0.268718
     38       0.196661  -0.220781   0.479438  -0.289089   0.000443  -0.125309
     39      -0.017792   0.035052  -0.046706   0.066503   0.002773  -0.053675
     40       0.210973  -0.173508   0.523086  -0.390621   0.001657  -0.016766
     41      -0.001703   0.033068  -0.053352   0.086571  -0.001754   0.238059
                 36         37         38         39         40         41    
      0      -0.014621   0.002074  -0.001007  -0.001779  -0.027367   0.032662
      1       0.024643  -0.002370   0.001734   0.000589   0.009998  -0.011835
      2      -0.006201   0.000453  -0.000410   0.003909   0.055922  -0.066845
      3      -0.000685   0.000425   0.000100  -0.000039  -0.000876   0.001769
      4      -0.002124  -0.000111  -0.000481   0.000064   0.000189  -0.000614
      5       0.002694  -0.000356  -0.000020   0.000126   0.002165  -0.002539
      6       0.000728  -0.000290  -0.000265  -0.000011   0.000060  -0.000168
      7      -0.000254   0.000289   0.000379  -0.000176  -0.000180  -0.000116
      8      -0.000265  -0.000063  -0.000268  -0.000071  -0.000596  -0.000120
      9       0.000491   0.008286   0.009693  -0.002180  -0.027115  -0.023241
     10       0.001831  -0.022588  -0.045528   0.002535   0.034589   0.029121
     11      -0.007403   0.012542   0.042679   0.003812   0.061194   0.051462
     12      -0.012362  -0.021815   0.009489   0.003179  -0.002471  -0.001880
     13      -0.008701  -0.004417   0.006127   0.001581  -0.001800  -0.001033
     14       0.040473   0.060664  -0.026222  -0.009431   0.007264   0.005603
     15      -0.010556   0.010444  -0.006493   0.010615  -0.000493   0.000501
     16       0.042553  -0.024707   0.016475   0.054374  -0.003424   0.000262
     17       0.018372  -0.024261   0.012150  -0.081626   0.004132  -0.000208
     18       0.226087  -0.027748   0.016006   0.013937   0.210853  -0.251057
     19      -0.233296   0.027635  -0.015537  -0.015098  -0.222284   0.264721
     20      -0.164548   0.018846  -0.010822  -0.010298  -0.148116   0.176143
     21      -0.057479   0.004567  -0.003417   0.009448   0.121898  -0.145795
     22      -0.037095   0.003540  -0.002318   0.006969   0.096388  -0.114841
     23       0.223829  -0.021328   0.012907  -0.030690  -0.517443   0.618118
     24       0.006924  -0.001030   0.001638  -0.000771   0.007857  -0.007001
     25       0.005949  -0.000641   0.000459  -0.000484   0.004206  -0.004654
     26      -0.017475   0.002767  -0.001195   0.001491  -0.020669   0.022528
     27      -0.001544  -0.133431  -0.214283   0.022327   0.269829   0.227408
     28       0.003005   0.223572   0.366023  -0.036770  -0.468710  -0.395301
     29       0.000456   0.157902   0.255255  -0.023812  -0.308297  -0.259876
     30      -0.009657   0.039418   0.098054   0.001590   0.051933   0.043798
     31      -0.012217   0.044453   0.113764   0.000750   0.073105   0.061122
     32       0.084087  -0.303382  -0.739973  -0.018548  -0.420018  -0.352553
     33       0.158086   0.227093  -0.092038  -0.032196   0.024648   0.016687
     34       0.069183   0.096294  -0.039662  -0.012216   0.012231   0.008935
     35      -0.491403  -0.701432   0.282836   0.101974  -0.078087  -0.056058
     36       0.017934  -0.010897   0.007780   0.028275  -0.001649  -0.000544
     37      -0.515918   0.271363  -0.183276  -0.614916   0.036404  -0.006551
     38       0.239050  -0.126975   0.082887   0.267055  -0.015880   0.002344
     39       0.097711  -0.086381   0.050074  -0.159166   0.008620   0.002264
     40       0.030900  -0.025045   0.012778  -0.030167   0.000213  -0.001060
     41      -0.440951   0.390221  -0.213387   0.705463  -0.039124   0.000527


-----------
IR SPECTRUM
-----------

 Mode    freq (cm**-1)   T**2         TX         TY         TZ
-------------------------------------------------------------------
   7:       168.46    2.908305  (  0.175423   0.904443  -1.435101)
   8:       265.29   19.562554  ( -3.993879  -1.864445  -0.367870)
   9:       309.87    2.061901  ( -0.948319  -1.072086   0.114990)
  10:       377.47    1.179979  ( -0.615529   0.880894   0.158519)
  11:       423.98    6.444957  ( -1.079181  -2.017294  -1.100386)
  12:       461.15    0.392691  (  0.405958  -0.236232  -0.414830)
  13:       527.42   13.059109  (  1.624789   3.042383  -1.078461)
  14:       736.41   24.305119  ( -4.922641   0.229424  -0.141741)
  15:       805.33    3.678541  ( -1.625988  -0.989446   0.236010)
  16:       874.32   36.528875  ( -3.881244  -4.460176  -1.253656)
  17:       891.39    6.075870  ( -1.817867  -0.855164  -1.428259)
  18:       961.00    0.214040  (  0.308148   0.331374  -0.096311)
  19:       996.67   19.796566  (  4.055279   1.453080  -1.113479)
  20:      1001.60    5.373783  (  0.014746  -2.073386  -1.036646)
  21:      1009.65   12.608409  ( -3.504964  -0.508143  -0.255781)
  22:      1036.18    1.548178  (  0.630903   1.026070   0.311962)
  23:      1055.42    1.781317  ( -0.670755  -1.145528   0.138455)
  24:      1086.54    2.020658  (  0.693773   0.205624   1.223542)
  25:      1266.41   12.950636  ( -3.572363   0.396853  -0.177113)
  26:      1273.76   11.611838  ( -2.142502  -1.281059   2.319572)
  27:      1301.54    0.184777  (  0.317897  -0.241347  -0.159594)
  28:      1361.25   12.705901  ( -0.470816   2.945235   1.951878)
  29:      1451.34   10.146385  ( -2.191239   2.309817  -0.097972)
  30:      1491.42    9.151541  ( -1.334594   1.710620   2.108122)
  31:      1549.86    7.909756  (  1.841250   0.609662  -2.036631)
  32:      1563.32    9.560368  (  2.203110   2.053338   0.700343)
  33:      1637.00   40.177848  ( -2.334665   5.873195   0.482467)
  34:      2988.72  101.045169  (  6.156345   2.515217  -7.537789)
  35:      3165.77    4.726706  ( -1.980520   0.458043  -0.771000)
  36:      3167.28   18.164386  ( -2.815884   2.197619   2.325006)
  37:      3173.77   11.165017  ( -0.600169  -2.640706   1.957418)
  38:      3177.38    7.070829  (  1.912136  -1.174223   1.426802)
  39:      3250.59    7.399780  (  0.184707   1.353381  -2.352451)
  40:      3263.56   17.628248  ( -1.485759   1.405468   3.666801)
  41:      3263.98    0.189107  (  0.245094   0.071949  -0.351936)

The first frequency considered to be a vibration is 7
The total number of vibrations considered is 35


--------------------------
THERMOCHEMISTRY AT 298.15K
--------------------------

Temperature         ... 298.15 K
Pressure            ... 1.00 atm
Total Mass          ... 84.12 AMU

Throughout the following assumptions are being made:
  (1) The electronic state is orbitally nondegenerate
  (2) There are no thermally accessible electronically excited states
  (3) Hindered rotations indicated by low frequency modes are not
      treated as such but are treated as vibrations and this may
      cause some error
  (4) All equations used are the standard statistical mechanics
      equations for an ideal gas
  (5) All vibrations are strictly harmonic

freq.     168.46  E(vib)   ...       0.38 
freq.     265.29  E(vib)   ...       0.29 
freq.     309.87  E(vib)   ...       0.26 
freq.     377.47  E(vib)   ...       0.21 
freq.     423.98  E(vib)   ...       0.18 
freq.     461.15  E(vib)   ...       0.16 
freq.     527.42  E(vib)   ...       0.13 
freq.     736.41  E(vib)   ...       0.06 
freq.     805.33  E(vib)   ...       0.05 
freq.     874.32  E(vib)   ...       0.04 
freq.     891.39  E(vib)   ...       0.04 
freq.     961.00  E(vib)   ...       0.03 
freq.     996.67  E(vib)   ...       0.02 
freq.    1001.60  E(vib)   ...       0.02 
freq.    1009.65  E(vib)   ...       0.02 
freq.    1036.18  E(vib)   ...       0.02 
freq.    1055.42  E(vib)   ...       0.02 
freq.    1086.54  E(vib)   ...       0.02 
freq.    1266.41  E(vib)   ...       0.01 
freq.    1273.76  E(vib)   ...       0.01 
freq.    1301.54  E(vib)   ...       0.01 
freq.    1361.25  E(vib)   ...       0.01 
freq.    1451.34  E(vib)   ...       0.00 
freq.    1491.42  E(vib)   ...       0.00 
freq.    1549.86  E(vib)   ...       0.00 
freq.    1563.32  E(vib)   ...       0.00 
freq.    1637.00  E(vib)   ...       0.00 
freq.    2988.72  E(vib)   ...       0.00 
freq.    3165.77  E(vib)   ...       0.00 
freq.    3167.28  E(vib)   ...       0.00 
freq.    3173.77  E(vib)   ...       0.00 
freq.    3177.38  E(vib)   ...       0.00 
freq.    3250.59  E(vib)   ...       0.00 
freq.    3263.56  E(vib)   ...       0.00 
freq.    3263.98  E(vib)   ...       0.00 

------------
INNER ENERGY
------------

The inner energy is: U= E(el) + E(ZPE) + E(vib) + E(rot) + E(trans)
    E(el)   - is the total energy from the electronic structure calculation
              = E(kin-el) + E(nuc-el) + E(el-el) + E(nuc-nuc)
    E(ZPE)  - the the zero temperature vibrational energy from the frequency calculation
    E(vib)  - the the finite temperature correction to E(ZPE) due to population
              of excited vibrational states
    E(rot)  - is the rotational thermal energy
    E(trans)- is the translational thermal energy

Summary of contributions to the inner energy U:
Electronic energy                ...   -270.28700180 Eh
Zero point energy                ...      0.11694998 Eh      73.39 kcal/mol
Thermal vibrational correction   ...      0.00316113 Eh       1.98 kcal/mol
Thermal rotational correction    ...      0.00141627 Eh       0.89 kcal/mol
Thermal translational correction ...      0.00141627 Eh       0.89 kcal/mol
-----------------------------------------------------------------------
Total thermal energy                   -270.16405814 Eh


Summary of corrections to the electronic energy:
(perhaps to be used in another calculation)
Total thermal correction                  0.00599368 Eh       3.76 kcal/mol
Non-thermal (ZPE) correction              0.11694998 Eh      73.39 kcal/mol
-----------------------------------------------------------------------
Total correction                          0.12294366 Eh      77.15 kcal/mol


--------
ENTHALPY
--------

The enthalpy is H = U + kB*T
                kB is Boltzmann's constant
Total free energy                 ...   -270.16405814 Eh 
Thermal Enthalpy correction       ...      0.00094421 Eh       0.59 kcal/mol
-----------------------------------------------------------------------
Total Enthalpy                    ...   -270.16311394 Eh


Note: Only C1 symmetry has been detected, increase convergence thresholds 
      if your molecule has a higher symmetry. Symmetry factor of 1.0 is   
      used for the rotational entropy correction. 
 

Note: Rotational entropy computed according to Herzberg 
Infrared and Raman Spectra, Chapter V,1, Van Nostrand Reinhold, 1945 
Point Group:  C1, Symmetry Number:   1  
Rotational constants in cm-1:     0.160043     0.128504     0.081068 

Vibrational entropy computed according to the QRRHO of S. Grimme
Chem.Eur.J. 2012 18 9955


-------
ENTROPY
-------

The entropy contributions are T*S = T*(S(el)+S(vib)+S(rot)+S(trans))
     S(el)   - electronic entropy
     S(vib)  - vibrational entropy
     S(rot)  - rotational entropy
     S(trans)- translational entropy
The entropies will be listed as mutliplied by the temperature to get
units of energy

Electronic entropy                ...      0.00000000 Eh      0.00 kcal/mol
Vibrational entropy               ...      0.00487864 Eh      3.06 kcal/mol
Rotational entropy                ...      0.01253057 Eh      7.86 kcal/mol
Translational entropy             ...      0.01862630 Eh     11.69 kcal/mol
-----------------------------------------------------------------------
Final entropy term                ...      0.03603551 Eh     22.61 kcal/mol

In case the symmetry of your molecule has not been determined correctly
or in case you have a reason to use a different symmetry number we print 
out the resulting rotational entropy values for sn=1,12 :
 --------------------------------------------------------
|  sn= 1 | S(rot)=       0.01253057 Eh      7.86 kcal/mol|
|  sn= 2 | S(rot)=       0.01187611 Eh      7.45 kcal/mol|
|  sn= 3 | S(rot)=       0.01149328 Eh      7.21 kcal/mol|
|  sn= 4 | S(rot)=       0.01122166 Eh      7.04 kcal/mol|
|  sn= 5 | S(rot)=       0.01101097 Eh      6.91 kcal/mol|
|  sn= 6 | S(rot)=       0.01083883 Eh      6.80 kcal/mol|
|  sn= 7 | S(rot)=       0.01069328 Eh      6.71 kcal/mol|
|  sn= 8 | S(rot)=       0.01056720 Eh      6.63 kcal/mol|
|  sn= 9 | S(rot)=       0.01045599 Eh      6.56 kcal/mol|
|  sn=10 | S(rot)=       0.01035651 Eh      6.50 kcal/mol|
|  sn=11 | S(rot)=       0.01026652 Eh      6.44 kcal/mol|
|  sn=12 | S(rot)=       0.01018437 Eh      6.39 kcal/mol|
 --------------------------------------------------------


-------------------
GIBBS FREE ENERGY
-------------------

The Gibbs free energy is G = H - T*S

Total enthalpy                    ...   -270.16311394 Eh 
Total entropy correction          ...     -0.03603551 Eh    -22.61 kcal/mol
-----------------------------------------------------------------------
Final Gibbs free energy         ...   -270.19914945 Eh

For completeness - the Gibbs free energy minus the electronic energy
G-E(el)                           ...      0.08785236 Eh     55.13 kcal/mol


Timings for individual modules:

Sum of individual times         ...       61.817 sec (=   1.030 min)
GTO integral calculation        ...        0.669 sec (=   0.011 min)   1.1 %
SCF iterations                  ...        7.961 sec (=   0.133 min)  12.9 %
Analytical frequency calculation...       53.186 sec (=   0.886 min)  86.0 %
                             ****ORCA TERMINATED NORMALLY****
TOTAL RUN TIME: 0 days 0 hours 1 minutes 2 seconds 274 msec
